Position data Generated by SPaMD
4	atoms
2	atom types
0.000000		3.249000	xlo xhi
0.000000		2.813717	ylo yhi
0.000000		5.206000	zlo zhi
-1.624500		0.000000	0.000000	xy xz yz

Atoms

1	1	-0.000000	1.875811	0.000000
2	1	1.624500	0.937905	2.603000
3	2	-0.000000	1.875811	1.964224
4	2	1.624500	0.937905	4.567224
