Position data Generated by SPaMD
2	atoms
2	atom types
0.000000		3.250000	xlo xhi
0.000000		2.814583	ylo yhi
0.000000		5.260000	zlo zhi
-1.625000		0.000000	0.000000	xy xz yz

Atoms

1	1	-0.000162	1.876482	0.000000
2	2	-0.000162	1.876482	1.984598
