Position data Generated by SPaMD
4	atoms
2	atom types
0.000000		3.250000	xlo xhi
0.000000		2.814583	ylo yhi
0.000000		5.260000	zlo zhi
-1.625000		0.000000	0.000000	xy xz yz

Atoms

1	1	-0.000000	1.876388	0.000000
2	1	1.625000	0.938194	2.630000
3	2	-0.000000	1.876388	1.984598
4	2	1.625000	0.938194	4.614598
