Position data Generated by SPaMD
96	atoms
2	atom types
0.000000		13.000000	xlo xhi
0.000000		11.258332	ylo yhi
0.000000		15.780000	zlo zhi
-6.500000		0.000000	0.000000	xy xz yz

Atoms

1	1	-0.000162	1.876482	0.000000
2	2	-0.000162	1.876482	1.984598
3	1	-0.000162	1.876482	5.260000
4	2	-0.000162	1.876482	7.244598
5	1	-0.000162	1.876482	10.520000
6	2	-0.000162	1.876482	12.504598
7	1	-1.625162	4.691065	0.000000
8	2	-1.625162	4.691065	1.984598
9	1	-1.625162	4.691065	5.260000
10	2	-1.625162	4.691065	7.244598
11	1	-1.625162	4.691065	10.520000
12	2	-1.625162	4.691065	12.504598
13	1	-3.250162	7.505648	0.000000
14	2	-3.250162	7.505648	1.984598
15	1	-3.250162	7.505648	5.260000
16	2	-3.250162	7.505648	7.244598
17	1	-3.250162	7.505648	10.520000
18	2	-3.250162	7.505648	12.504598
19	1	-4.875162	10.320231	0.000000
20	2	-4.875162	10.320231	1.984598
21	1	-4.875162	10.320231	5.260000
22	2	-4.875162	10.320231	7.244598
23	1	-4.875162	10.320231	10.520000
24	2	-4.875162	10.320231	12.504598
25	1	3.249838	1.876482	0.000000
26	2	3.249838	1.876482	1.984598
27	1	3.249838	1.876482	5.260000
28	2	3.249838	1.876482	7.244598
29	1	3.249838	1.876482	10.520000
30	2	3.249838	1.876482	12.504598
31	1	1.624838	4.691065	0.000000
32	2	1.624838	4.691065	1.984598
33	1	1.624838	4.691065	5.260000
34	2	1.624838	4.691065	7.244598
35	1	1.624838	4.691065	10.520000
36	2	1.624838	4.691065	12.504598
37	1	-0.000162	7.505648	0.000000
38	2	-0.000162	7.505648	1.984598
39	1	-0.000162	7.505648	5.260000
40	2	-0.000162	7.505648	7.244598
41	1	-0.000162	7.505648	10.520000
42	2	-0.000162	7.505648	12.504598
43	1	-1.625162	10.320231	0.000000
44	2	-1.625162	10.320231	1.984598
45	1	-1.625162	10.320231	5.260000
46	2	-1.625162	10.320231	7.244598
47	1	-1.625162	10.320231	10.520000
48	2	-1.625162	10.320231	12.504598
49	1	6.499838	1.876482	0.000000
50	2	6.499838	1.876482	1.984598
51	1	6.499838	1.876482	5.260000
52	2	6.499838	1.876482	7.244598
53	1	6.499838	1.876482	10.520000
54	2	6.499838	1.876482	12.504598
55	1	4.874838	4.691065	0.000000
56	2	4.874838	4.691065	1.984598
57	1	4.874838	4.691065	5.260000
58	2	4.874838	4.691065	7.244598
59	1	4.874838	4.691065	10.520000
60	2	4.874838	4.691065	12.504598
61	1	3.249838	7.505648	0.000000
62	2	3.249838	7.505648	1.984598
63	1	3.249838	7.505648	5.260000
64	2	3.249838	7.505648	7.244598
65	1	3.249838	7.505648	10.520000
66	2	3.249838	7.505648	12.504598
67	1	1.624838	10.320231	0.000000
68	2	1.624838	10.320231	1.984598
69	1	1.624838	10.320231	5.260000
70	2	1.624838	10.320231	7.244598
71	1	1.624838	10.320231	10.520000
72	2	1.624838	10.320231	12.504598
73	1	9.749838	1.876482	0.000000
74	2	9.749838	1.876482	1.984598
75	1	9.749838	1.876482	5.260000
76	2	9.749838	1.876482	7.244598
77	1	9.749838	1.876482	10.520000
78	2	9.749838	1.876482	12.504598
79	1	8.124838	4.691065	0.000000
80	2	8.124838	4.691065	1.984598
81	1	8.124838	4.691065	5.260000
82	2	8.124838	4.691065	7.244598
83	1	8.124838	4.691065	10.520000
84	2	8.124838	4.691065	12.504598
85	1	6.499838	7.505648	0.000000
86	2	6.499838	7.505648	1.984598
87	1	6.499838	7.505648	5.260000
88	2	6.499838	7.505648	7.244598
89	1	6.499838	7.505648	10.520000
90	2	6.499838	7.505648	12.504598
91	1	4.874838	10.320231	0.000000
92	2	4.874838	10.320231	1.984598
93	1	4.874838	10.320231	5.260000
94	2	4.874838	10.320231	7.244598
95	1	4.874838	10.320231	10.520000
96	2	4.874838	10.320231	12.504598
