ITEM: TIMESTEP
265000
ITEM: NUMBER OF ATOMS
500
ITEM: BOX BOUNDS pp pp pp
-9.3012386186738816e-01 1.9005123861867709e+01
-9.3012386186738816e-01 1.9005123861867709e+01
-9.3012386186738816e-01 1.9005123861867709e+01
ITEM: ATOMS id type x y z 
30 1 0.705745 0.573287 1.9335 
227 1 2.63466 2.24224 1.83963 
127 2 0.232022 2.75896 0.276267 
125 2 3.44663 -0.43276 1.61281 
91 2 0.384984 2.83822 3.5916 
252 1 0.806338 -0.757142 0.114117 
401 1 2.31903 0.608683 3.85557 
488 1 4.80859 1.89939 0.261617 
100 2 4.75727 3.55345 2.34148 
215 1 7.06569 2.76866 0.576119 
155 1 6.36762 0.391221 1.56679 
107 2 8.40421 2.05202 2.85334 
90 1 8.70701 -0.365049 1.21747 
264 1 4.84926 -0.580321 -0.640758 
407 2 9.65496 1.80308 -0.0158658 
122 2 12.3526 1.49232 1.50304 
37 1 10.6788 -0.000487029 2.88308 
456 1 11.0372 3.06914 3.1221 
230 1 11.65 3.81945 0.0637316 
205 2 13.697 -0.230973 -0.774794 
93 2 13.7799 3.99495 2.86574 
421 1 13.8478 2.67681 -0.276134 
361 1 18.4414 -0.51949 -0.422153 
198 1 15.6545 3.10919 1.28651 
154 2 17.8725 1.23237 1.88926 
423 1 15.5883 1.88998 3.51475 
495 1 17.7171 3.65752 0.170653 
332 1 14.9187 0.831838 1.57194 
335 1 17.6048 3.85343 2.88324 
62 2 16.5363 -0.777793 3.92001 
156 2 3.01141 4.31644 -0.575402 
41 2 1.33051 7.41808 0.827362 
219 1 1.6813 4.67337 1.68771 
350 1 3.73967 6.34462 1.61663 
33 1 0.210223 8.77644 3.30953 
444 1 2.35561 7.41825 3.55249 
95 1 2.85498 4.95088 3.74143 
134 2 0.102068 5.89979 3.7562 
63 1 -0.7408 5.19067 1.33273 
289 1 3.87615 8.8093 0.536902 
26 1 5.14973 5.87135 3.57908 
43 1 5.59032 4.96846 0.213666 
238 1 7.27819 4.8912 2.13113 
35 2 6.29608 7.49506 1.20533 
200 2 8.23838 5.12515 -0.560927 
372 1 7.49469 6.75348 3.889 
115 1 4.36368 6.86479 -0.8184 
489 2 5.07053 8.41858 4.01078 
428 1 8.4258 7.9853 18.8925 
399 1 9.60498 4.12299 1.42085 
455 2 9.31448 7.21368 1.61208 
297 1 9.30454 5.13256 3.55227 
12 1 11.4693 5.59851 1.83631 
68 1 13.5709 5.40031 0.601198 
87 2 12.3126 8.1443 1.038 
72 1 11.8209 8.55317 3.64678 
414 1 13.7745 6.77579 2.82285 
173 2 18.1525 7.5085 1.88178 
438 1 16.2419 5.50005 1.47642 
285 1 15.8506 8.36452 3.34801 
253 2 15.2797 7.82539 0.580354 
191 1 17.7474 6.25123 -0.62614 
274 1 2.58984 11.0016 0.385796 
432 1 1.17761 12.278 2.00408 
397 2 -0.192055 10.0264 0.668195 
475 2 2.60807 9.93546 2.78902 
385 2 -0.347342 13.7043 3.85053 
153 2 2.94577 13.8326 0.449525 
487 1 3.9425 12.104 2.28207 
430 1 -0.872386 11.1676 2.92202 
345 2 0.72838 12.4261 18.9053 
193 1 7.75419 9.08334 3.13451 
301 1 7.93831 9.84016 0.756509 
143 2 5.46816 11.3833 0.101897 
461 1 8.33808 11.4405 2.66636 
479 1 7.75698 12.6013 -0.104015 
176 2 6.29068 12.8574 3.22991 
353 1 5.7665 10.2775 2.44789 
262 1 8.18019 13.9657 1.82446 
446 1 10.3999 9.3161 -0.390477 
167 1 9.89354 13.1308 3.52599 
265 2 10.1175 11.8543 0.751988 
22 1 11.7229 11.5796 3.02329 
269 1 10.1915 9.59774 2.22288 
497 1 12.5115 10.9366 0.40329 
316 1 13.4699 12.9601 1.75187 
329 2 13.918 10.071 2.80834 
471 2 12.6981 13.8001 -0.871026 
466 1 17.4111 8.92526 -0.657781 
45 1 17.0311 9.9323 1.89237 
164 2 16.4525 12.3392 3.07668 
157 1 18.0047 12.158 0.700959 
283 2 15.3623 11.0854 0.293001 
106 1 -0.0945918 14.237 0.887458 
140 2 1.14117 18.0941 3.38432 
212 2 1.39152 16.731 0.530259 
86 1 1.6576 14.912 2.56107 
362 1 3.4612 16.7579 2.505 
492 1 -0.597144 16.1872 2.68775 
27 1 5.65198 14.0489 0.835506 
303 1 4.17536 14.5642 2.98766 
182 2 8.16401 18.8707 3.7317 
485 2 4.60136 16.6849 0.116965 
16 2 7.72338 15.4347 -0.428535 
171 1 5.48236 18.3833 3.16223 
465 1 6.75696 18.0512 0.712198 
419 2 6.59652 16.0082 2.71261 
112 1 8.95706 16.9392 1.42793 
424 1 9.04982 15.4982 3.66003 
71 2 11.05 18.7448 0.268436 
272 1 12.2512 14.2935 3.50134 
189 2 10.7197 14.6192 1.37513 
8 2 11.0469 17.2215 3.10111 
75 1 12.9932 15.8401 1.168 
311 2 13.8022 18.4091 2.32395 
76 1 10.7787 16.2018 -0.704865 
23 2 15.4695 14.129 0.394256 
358 1 16.4366 18.9071 1.04109 
434 1 17.587 14.5189 1.84284 
55 1 18.8039 18.5834 2.01835 
381 2 14.7896 15.1695 3.16725 
28 1 15.3044 16.7458 0.695233 
388 1 16.9102 16.8669 2.64295 
42 2 18.1433 16.5561 0.0698757 
298 1 -0.508195 0.146128 4.12153 
263 1 3.33956 2.60441 4.8175 
310 1 1.11101 1.46492 5.7498 
50 2 1.01892 1.59188 8.34278 
15 2 3.56248 0.314006 6.74445 
53 1 3.37874 3.06239 7.5998 
439 1 -0.547079 3.08276 6.82399 
254 2 5.31937 1.00571 4.05852 
336 2 8.35449 2.82463 7.57923 
368 1 5.51393 2.40358 6.4259 
108 1 6.29139 0.458645 7.46648 
380 1 7.63986 1.27529 5.35913 
348 2 8.81194 -0.397896 7.05567 
284 2 6.95199 4.00374 4.78236 
179 1 10.2223 1.15529 4.92524 
126 2 13.1953 1.04812 4.44332 
323 1 9.69539 3.4254 5.35791 
435 2 11.2678 2.07769 7.33639 
251 1 12.1738 3.33428 5.1013 
352 1 13.615 0.0911448 7.22185 
117 2 11.5882 -0.470318 8.99137 
445 2 14.1982 2.84176 6.94986 
494 1 17.8627 2.00529 4.78145 
257 1 15.6963 0.976073 5.90965 
302 2 18.2438 0.258996 6.72658 
101 1 17.1016 2.76623 7.26662 
390 1 15.9176 3.53969 5.07708 
165 1 15.8025 0.979197 8.44199 
436 2 1.73955 4.55036 6.05489 
152 1 1.09119 4.29937 8.59949 
460 2 0.784559 7.86377 6.1109 
213 1 3.47979 6.90639 5.60288 
338 1 -0.557657 5.58806 7.02157 
21 1 1.31081 6.77404 8.63831 
110 1 2.8595 8.82611 7.92536 
239 2 3.965 5.99217 8.05147 
5 1 4.4824 4.54652 5.70467 
425 1 6.09471 6.53148 5.94717 
392 1 6.3542 4.54111 7.67642 
220 1 6.85017 7.14621 8.22575 
221 1 7.73333 8.5106 5.93328 
121 2 8.97933 5.87536 6.5564 
234 2 9.25288 8.36324 8.35232 
159 1 9.60286 7.61867 4.32829 
74 2 11.6034 5.86942 4.46758 
64 1 11.6293 4.97582 7.13534 
135 2 11.5304 8.06705 6.5475 
258 1 13.673 6.56955 7.28228 
19 1 13.8468 7.87526 4.95831 
58 1 13.9452 5.24843 5.45961 
208 2 16.0972 5.92204 4.11493 
347 1 18.2077 4.52823 5.28995 
180 1 18.1242 7.25966 5.25578 
1 2 16.1907 5.30076 7.39841 
166 2 18.1322 7.61332 8.15556 
493 1 15.8453 7.72442 6.24269 
243 1 2.53805 12.9113 4.18722 
120 1 2.83577 9.33041 5.50811 
261 2 0.638666 10.8952 5.18458 
293 2 0.480651 10.0734 8.49397 
277 2 2.93725 11.7098 7.13908 
60 1 -0.603666 12.1009 7.33822 
2 1 1.01693 13.6137 6.1418 
3 1 0.985751 13.2496 8.55226 
294 2 5.282 9.1604 6.95652 
246 1 4.42479 11.1491 4.73286 
56 1 6.90491 10.6929 4.90873 
188 1 8.42531 10.8186 7.15333 
114 2 8.29544 13.1895 5.57009 
195 1 5.96719 11.7652 7.01264 
312 1 4.64692 13.2829 8.57953 
46 2 4.87815 13.8493 5.75341 
391 1 6.93005 9.73961 8.92782 
320 1 13.8533 9.17357 7.29849 
132 1 11.4903 12.6286 5.55013 
491 1 12.6735 10.2824 5.2155 
183 2 9.8251 10.3477 4.7966 
449 1 11.0495 10.6282 7.26924 
172 2 10.0504 13.0814 8.1496 
266 2 13.6508 11.9854 7.13222 
256 1 13.8912 12.4389 4.28483 
278 1 18.0149 9.41014 4.23813 
245 1 16.2141 9.41945 7.92228 
138 1 18.349 9.75166 6.68091 
201 2 15.7624 10.337 5.34602 
441 1 18.0865 12.0043 5.26285 
150 2 16.6767 11.9698 8.03615 
178 1 15.9579 13.3052 5.58758 
360 1 -0.266148 18.9131 8.90781 
226 2 0.916494 18.5961 6.34557 
383 2 2.20191 15.7563 5.07102 
291 1 -0.30106 15.912 5.487 
384 2 0.874405 16.1758 8.28548 
346 1 2.94749 14.6936 7.6279 
326 1 3.49718 18.4523 4.61943 
162 1 3.32015 17.3437 6.90894 
342 1 2.04808 18.8169 8.84074 
496 1 6.97118 14.2083 7.79126 
377 1 5.14276 15.8633 7.56835 
339 1 4.75968 16.3151 4.77167 
89 2 6.08123 18.1557 6.04036 
169 1 7.10004 15.633 5.5462 
450 2 7.3511 17.0049 8.71861 
84 1 8.93565 15.467 7.35447 
273 1 8.95792 17.2016 5.53282 
130 1 12.7064 14.2164 8.1757 
480 2 11.4474 18.7581 5.70301 
356 1 13.174 16.6578 4.58355 
14 2 10.9905 15.2561 5.75873 
280 2 13.1784 16.8703 7.50842 
175 1 10.3097 17.4176 7.78807 
161 1 13.6429 14.4567 5.81821 
92 1 17.3663 15.0371 4.27759 
376 1 14.2378 18.6649 5.26609 
443 1 18.5491 17.7406 4.67341 
109 1 15.8767 18.7672 7.21173 
468 1 18.3047 17.4398 7.27232 
97 2 18.206 14.5278 7.11354 
482 1 15.344 14.5078 7.66052 
314 2 15.8744 16.5588 5.78864 
458 1 16.3933 16.6732 8.51689 
267 1 3.52719 0.949238 9.30925 
354 2 1.74563 0.00968629 13.5037 
82 1 1.41582 0.669265 10.8206 
31 2 3.08217 3.51981 10.2412 
36 1 0.167288 2.93226 10.7398 
306 1 1.89059 2.73592 12.616 
210 1 -0.608195 1.36429 12.5348 
139 1 -0.114843 3.71242 13.3325 
163 1 3.82641 1.4039 11.6623 
410 1 7.56563 -0.116808 9.63005 
327 2 5.87248 2.29402 9.38971 
477 1 5.56336 3.3007 12.0334 
85 1 6.39476 1.01065 11.719 
197 2 8.48074 3.22806 10.8281 
412 2 7.52318 2.79874 13.6901 
415 2 4.75427 -0.780862 12.8219 
65 1 7.02871 -0.247287 13.9854 
80 2 9.05095 0.451542 12.1348 
118 1 9.43524 1.16509 9.3322 
147 1 13.5334 1.64165 9.49778 
367 1 10.9571 1.97215 13.1405 
111 1 13.1163 1.66037 12.0765 
233 1 11.2498 2.04163 10.4491 
209 1 11.5057 -0.303997 11.6057 
235 1 14.6138 3.59022 11.6995 
366 1 15.4326 1.19773 10.9753 
57 2 18.1742 1.28453 9.67993 
364 1 17.0566 -0.0484843 12.0338 
49 1 15.9025 3.2196 9.42579 
452 2 17.328 3.12077 11.9882 
137 2 15.6917 1.48808 13.9764 
473 1 3.29123 6.26588 10.6133 
70 1 2.69292 7.33724 12.9014 
318 2 0.867034 5.51033 11.396 
128 2 0.0730836 7.98117 12.8845 
413 1 -0.0557682 8.05584 10.1851 
405 2 2.61991 8.81229 10.6175 
355 2 3.83724 4.95604 13.1821 
149 1 8.54151 5.48287 9.24985 
20 1 6.62708 5.61765 13.2092 
77 1 4.94271 8.13277 9.58374 
396 2 7.51651 8.08784 10.9519 
490 2 5.98144 5.41747 10.4016 
69 1 4.99768 7.43855 12.0663 
406 1 6.70114 8.28237 13.6759 
472 2 8.97874 5.9522 11.9104 
199 1 10.6048 4.1141 9.21669 
186 1 9.86928 4.23529 13.8273 
103 2 11.7043 4.39468 11.8513 
374 2 11.5111 6.67584 9.63303 
321 2 13.5887 4.47115 9.33653 
357 1 10.2385 8.58104 11.1263 
119 1 11.0527 6.95793 13.0886 
34 2 13.1243 8.55129 11.8351 
319 1 13.8676 6.04511 11.6114 
304 1 13.3348 6.51086 13.9568 
451 2 18.5098 4.6682 9.43693 
337 2 14.982 7.59118 9.48405 
228 1 17.851 7.214 10.964 
52 1 16.1712 5.47566 10.6956 
457 1 15.9011 7.78892 12.2042 
11 1 18.2585 5.58567 12.6134 
96 2 15.781 5.49206 13.5989 
288 2 1.98087 11.8741 10.6185 
48 1 -0.0103518 10.2422 11.3543 
194 1 2.83003 12.9 12.854 
242 2 2.86599 10.1189 13.4289 
486 1 0.395147 10.7734 13.7006 
94 2 -0.765004 12.7939 12.4906 
287 1 4.46706 10.7191 9.27109 
270 2 7.11095 12.1689 9.40155 
124 1 4.96368 12.2197 13.5215 
223 1 4.6697 12.6873 10.9953 
88 2 5.48232 10.2187 11.7282 
427 2 7.24315 13.2869 12.1344 
268 1 8.31253 10.6358 11.5548 
408 1 7.15776 10.926 13.8962 
371 2 9.23951 9.15853 13.6484 
184 1 9.31632 12.178 13.4191 
203 1 12.0245 9.33827 9.24528 
146 1 9.74692 10.6237 9.52406 
67 1 12.1234 11.8425 9.43047 
295 1 9.74293 12.7438 10.9438 
240 2 11.3263 10.8604 11.9449 
426 1 11.8165 13.0352 13.3403 
10 1 13.7176 11.9472 11.4931 
462 1 13.624 11.0868 13.8295 
54 1 18.8889 12.1012 9.85583 
469 2 17.4077 9.84862 10.248 
105 1 14.4652 10.4166 9.54406 
224 2 17.5973 10.0043 13.251 
328 1 14.5774 13.0249 9.58136 
4 1 15.232 10.1968 12.0512 
211 1 16.412 12.3127 11.2407 
181 1 16.1169 12.1304 13.7184 
102 2 14.4568 13.9284 12.9876 
133 1 3.52668 16.8306 9.21902 
382 2 -0.469295 18.7649 11.6163 
409 1 0.185027 14.5075 10.4268 
307 1 2.86531 18.6287 11.1275 
498 1 0.964742 17.2737 13.4823 
248 1 1.29255 16.8137 10.9013 
255 2 3.03669 14.8052 10.5413 
333 1 1.36959 14.8747 12.7792 
17 1 3.19454 16.6561 12.8675 
315 1 -0.869852 15.9022 12.1251 
192 2 5.11521 18.8805 9.4148 
260 1 5.01526 16.8683 11.2648 
453 1 5.88563 14.9166 10.0508 
142 1 7.03482 18.4124 11.6083 
341 1 4.93721 14.6943 12.6269 
476 1 7.36307 15.983 11.9624 
81 1 8.75652 17.8299 13.334 
373 1 8.54817 14.756 9.98597 
40 2 13.8636 -0.852786 12.5525 
204 1 10.8368 15.6198 9.12584 
292 2 12.0567 14.1272 10.8867 
170 2 9.61631 17.555 10.6448 
393 1 12.359 17.239 10.4018 
308 1 11.4649 17.3389 12.8254 
174 2 9.94126 15.0977 12.6761 
275 1 13.4806 16.3244 12.3957 
232 1 17.2559 18.8586 9.47169 
214 2 14.6031 18.859 9.6435 
324 1 18.6505 16.7498 9.8176 
222 2 17.3466 14.4491 10.0545 
463 2 14.4961 15.5822 10.0554 
145 2 16.456 17.2303 11.7513 
331 1 17.0648 14.6281 12.9154 
400 2 2.56319 1.21608 -0.826021 
394 1 0.944578 2.89485 17.6082 
47 1 0.476706 0.128064 17.6827 
104 1 3.35547 3.0684 16.7863 
279 2 -0.201293 1.77969 15.4673 
241 1 2.52071 0.553848 16.1441 
309 1 1.85576 3.36402 15.037 
343 2 4.27625 1.86922 14.3285 
144 2 7.13247 0.31494 18.7415 
6 1 4.65791 1.32655 17.5921 
437 2 5.98311 3.51109 17.9662 
231 1 6.63582 1.58725 16.0006 
206 1 8.57833 2.2177 17.5555 
402 2 5.20875 -0.655883 16.1449 
281 1 8.79499 0.897141 15.3607 
500 1 5.5865 3.97441 15.1677 
61 2 13.3593 3.6209 14.2798 
395 1 11.8275 1.81629 18.4654 
433 2 10.9872 2.36055 15.9113 
351 1 13.0817 0.765605 14.6193 
369 1 9.93814 0.115251 17.5755 
244 1 12.3679 -0.121142 16.8617 
59 2 10.8303 -0.625676 14.4968 
98 1 10.23 4.00725 17.9495 
478 2 16.3014 1.34431 19.0017 
237 2 14.1699 2.16886 16.8186 
99 1 18.2273 0.0632719 14.2137 
365 1 18.7313 1.60206 18.2853 
431 1 15.078 -0.330063 16.6129 
481 1 17.7904 3.5211 14.624 
148 1 17.0229 1.64593 16.279 
185 1 15.924 3.91232 15.9809 
344 2 17.8457 -0.881795 16.8713 
359 2 18.346 4.01993 17.523 
499 1 0.357169 5.31209 -0.876248 
417 1 1.47723 5.55928 14.0714 
7 1 2.15463 7.03573 18.2083 
44 1 1.30081 5.12605 16.7611 
78 2 1.86845 7.82303 15.4804 
459 2 -0.459382 7.71854 17.8986 
216 2 -0.790741 5.77248 15.3005 
276 1 -0.504058 9.01936 15.3594 
330 2 3.96901 5.6628 16.4175 
322 2 4.09773 8.91448 17.2415 
236 1 4.52519 7.54866 14.6154 
398 2 8.28103 4.31889 16.0567 
282 1 6.49854 6.26048 15.5432 
296 1 6.41428 6.51478 18.0786 
375 2 7.29721 8.63242 16.3248 
313 1 8.72707 6.64613 14.4607 
483 1 8.88109 6.54189 17.0561 
29 2 11.0885 6.45569 18.8004 
448 1 12.692 4.25968 17.7968 
51 1 13.0427 7.66861 16.3143 
250 2 11.2112 5.64978 15.6013 
217 2 10.4985 8.70782 16.6039 
136 1 13.6934 6.78408 18.3753 
229 1 12.0594 8.91587 14.2411 
474 1 14.0928 5.49606 16.1552 
247 2 15.4104 4.60512 18.7536 
418 1 17.5198 7.59164 14.2525 
470 2 16.5292 6.66603 16.6665 
177 2 14.9277 8.7385 14.6233 
464 1 1.74028 9.51362 18.6936 
325 1 3.46888 11.6744 18.1243 
32 2 1.42765 10.8062 16.3112 
387 1 1.18038 12.9904 14.6467 
38 1 2.18632 13.6134 17.0652 
218 1 3.63547 12.1017 15.607 
18 1 -0.290425 13.8412 16.4858 
411 1 6.10812 9.00806 18.8923 
24 1 8.32143 10.5242 18.3474 
363 2 6.65223 13.6197 15.0193 
123 2 6.08868 11.373 16.8596 
83 1 5.07425 9.99255 14.8187 
290 1 7.95536 13.1608 17.5199 
404 1 8.72456 11.0916 15.8803 
158 1 12.5464 9.14877 18.4712 
403 1 11.0526 11.0535 14.8727 
447 2 10.8881 11.5015 17.7406 
334 1 13.0728 10.1493 16.1185 
9 2 9.91085 13.6782 15.5835 
141 1 13.7209 11.4476 18.1827 
187 2 13.086 12.8949 15.8087 
225 1 9.98017 13.8878 18.6029 
317 1 -0.777538 10.3197 17.8729 
440 2 15.074 9.18739 17.7534 
151 1 16.9329 11.2833 18.1708 
25 1 17.2776 9.31855 16.2871 
271 2 18.2859 11.818 15.6416 
442 1 15.4643 11.2962 15.9977 
420 1 15.219 13.2962 17.749 
39 2 17.978 13.7557 18.4862 
66 1 0.395923 18.8265 15.5365 
422 1 0.386571 15.2277 18.4637 
454 1 2.76292 15.605 18.2692 
386 2 3.60068 14.7474 14.9014 
379 1 3.0891 18.0509 15.023 
484 1 -0.000937709 17.6815 18.0332 
249 2 2.68783 18.3041 17.8781 
305 2 1.12319 16.189 15.9424 
202 1 -0.627148 14.8318 14.37 
340 2 5.01437 14.0704 17.8982 
299 1 8.83667 18.0252 18.9012 
168 2 5.84759 16.8124 14.2545 
259 1 8.21433 15.7543 14.6648 
429 1 4.53837 16.6064 16.7462 
13 1 6.3543 17.5997 18.0893 
160 1 6.80983 15.6118 16.7317 
73 2 8.28846 18.216 16.1774 
207 1 9.20892 15.8598 17.1964 
370 1 12.368 15.2676 14.3362 
113 1 10.9618 17.8186 17.2883 
300 2 13.3195 17.6847 15.358 
389 1 10.4286 16.6508 15.0828 
190 1 11.7075 15.3232 16.925 
286 2 13.4781 16.8128 18.4909 
131 1 15.2785 16.2539 14.0897 
79 1 15.9977 18.7736 14.3577 
349 1 14.2031 15.2481 16.3953 
129 2 16.6793 14.3676 15.6139 
196 1 16.0466 15.7398 18.1716 
116 1 16.0644 18.2838 18.6552 
378 1 15.9557 17.171 16.3211 
467 2 18.1873 17.2159 14.3355 
416 1 18.365 16.1292 16.9534 
