Position data Generated by SPaMD
4	atoms
1	atom types
0.000000		3.627000	xlo xhi
0.000000		3.627000	ylo yhi
0.000000		3.627000	zlo zhi
0.000000		0.000000	0.000000	xy xz yz

Atoms

1	1	0.000000	0.000000	0.000000
2	1	0.000000	1.813500	1.813500
3	1	1.813500	0.000000	1.813500
4	1	1.813500	1.813500	0.000000
