Position data Generated by SPaMD
108	atoms
1	atom types
0.000000		10.830000	xlo xhi
0.000000		10.830000	ylo yhi
0.000000		10.830000	zlo zhi

Atoms

1	1	0.000000	0.000000	0.000000
2	1	1.805000	1.805000	0.000000
3	1	1.805000	0.000000	1.805000
4	1	0.000000	1.805000	1.805000
5	1	3.610000	0.000000	0.000000
6	1	5.415000	1.805000	0.000000
7	1	5.415000	0.000000	1.805000
8	1	3.610000	1.805000	1.805000
9	1	7.220000	0.000000	0.000000
10	1	9.025000	1.805000	0.000000
11	1	9.025000	0.000000	1.805000
12	1	7.220000	1.805000	1.805000
13	1	0.000000	3.610000	0.000000
14	1	1.805000	5.415000	0.000000
15	1	1.805000	3.610000	1.805000
16	1	0.000000	5.415000	1.805000
17	1	3.610000	3.610000	0.000000
18	1	5.415000	5.415000	0.000000
19	1	5.415000	3.610000	1.805000
20	1	3.610000	5.415000	1.805000
21	1	7.220000	3.610000	0.000000
22	1	9.025000	5.415000	0.000000
23	1	9.025000	3.610000	1.805000
24	1	7.220000	5.415000	1.805000
25	1	0.000000	7.220000	0.000000
26	1	1.805000	9.025000	0.000000
27	1	1.805000	7.220000	1.805000
28	1	0.000000	9.025000	1.805000
29	1	3.610000	7.220000	0.000000
30	1	5.415000	9.025000	0.000000
31	1	5.415000	7.220000	1.805000
32	1	3.610000	9.025000	1.805000
33	1	7.220000	7.220000	0.000000
34	1	9.025000	9.025000	0.000000
35	1	9.025000	7.220000	1.805000
36	1	7.220000	9.025000	1.805000
37	1	0.000000	0.000000	3.610000
38	1	1.805000	1.805000	3.610000
39	1	1.805000	0.000000	5.415000
40	1	0.000000	1.805000	5.415000
41	1	3.610000	0.000000	3.610000
42	1	5.415000	1.805000	3.610000
43	1	5.415000	0.000000	5.415000
44	1	3.610000	1.805000	5.415000
45	1	7.220000	0.000000	3.610000
46	1	9.025000	1.805000	3.610000
47	1	9.025000	0.000000	5.415000
48	1	7.220000	1.805000	5.415000
49	1	0.000000	3.610000	3.610000
50	1	1.805000	5.415000	3.610000
51	1	1.805000	3.610000	5.415000
52	1	0.000000	5.415000	5.415000
53	1	3.610000	3.610000	3.610000
54	1	5.415000	5.415000	3.610000
55	1	5.415000	3.610000	5.415000
56	1	3.610000	5.415000	5.415000
57	1	7.220000	3.610000	3.610000
58	1	9.025000	5.415000	3.610000
59	1	9.025000	3.610000	5.415000
60	1	7.220000	5.415000	5.415000
61	1	0.000000	7.220000	3.610000
62	1	1.805000	9.025000	3.610000
63	1	1.805000	7.220000	5.415000
64	1	0.000000	9.025000	5.415000
65	1	3.610000	7.220000	3.610000
66	1	5.415000	9.025000	3.610000
67	1	5.415000	7.220000	5.415000
68	1	3.610000	9.025000	5.415000
69	1	7.220000	7.220000	3.610000
70	1	9.025000	9.025000	3.610000
71	1	9.025000	7.220000	5.415000
72	1	7.220000	9.025000	5.415000
73	1	0.000000	0.000000	7.220000
74	1	1.805000	1.805000	7.220000
75	1	1.805000	0.000000	9.025000
76	1	0.000000	1.805000	9.025000
77	1	3.610000	0.000000	7.220000
78	1	5.415000	1.805000	7.220000
79	1	5.415000	0.000000	9.025000
80	1	3.610000	1.805000	9.025000
81	1	7.220000	0.000000	7.220000
82	1	9.025000	1.805000	7.220000
83	1	9.025000	0.000000	9.025000
84	1	7.220000	1.805000	9.025000
85	1	0.000000	3.610000	7.220000
86	1	1.805000	5.415000	7.220000
87	1	1.805000	3.610000	9.025000
88	1	0.000000	5.415000	9.025000
89	1	3.610000	3.610000	7.220000
90	1	5.415000	5.415000	7.220000
91	1	5.415000	3.610000	9.025000
92	1	3.610000	5.415000	9.025000
93	1	7.220000	3.610000	7.220000
94	1	9.025000	5.415000	7.220000
95	1	9.025000	3.610000	9.025000
96	1	7.220000	5.415000	9.025000
97	1	0.000000	7.220000	7.220000
98	1	1.805000	9.025000	7.220000
99	1	1.805000	7.220000	9.025000
100	1	0.000000	9.025000	9.025000
101	1	3.610000	7.220000	7.220000
102	1	5.415000	9.025000	7.220000
103	1	5.415000	7.220000	9.025000
104	1	3.610000	9.025000	9.025000
105	1	7.220000	7.220000	7.220000
106	1	9.025000	9.025000	7.220000
107	1	9.025000	7.220000	9.025000
108	1	7.220000	9.025000	9.025000
