Position data Generated by SPaMD
500	atoms
1	atom types
-0.153860		18.228860	xlo xhi
-0.153860		18.228860	ylo yhi
-0.153860		18.228860	zlo zhi

Atoms

196	1	2.204010	3.158600	0.516789
151	1	3.241140	1.821770	2.573800
365	1	0.889681	1.814250	2.461970
430	1	2.026820	0.482964	0.882742
135	1	3.963240	1.510490	-0.089514
43	1	0.348754	3.263170	4.318650
97	1	2.359850	4.102340	2.848300
129	1	4.509620	3.267910	4.112900
361	1	4.616470	3.581030	1.346060
314	1	5.685120	1.581890	2.804750
136	1	7.076310	3.144700	1.072710
246	1	8.042550	1.275750	2.545720
209	1	6.551510	0.797961	0.554532
125	1	6.675370	3.970310	3.269570
68	1	9.058510	3.355160	3.434110
77	1	10.056800	0.537793	2.979580
162	1	11.624400	2.758090	2.909690
60	1	12.842600	1.816320	0.968622
88	1	10.013900	2.094660	0.931269
157	1	11.792200	4.080760	0.709836
273	1	9.355860	4.425870	1.233280
479	1	12.543200	0.003041	2.984350
149	1	13.844400	3.674710	1.984520
315	1	17.727200	0.804128	0.523108
393	1	14.386000	1.641750	3.369870
257	1	16.747200	2.745440	2.764400
78	1	16.240900	0.270175	2.325120
404	1	15.565800	2.084990	0.603915
93	1	18.029800	3.366190	0.722378
494	1	15.223700	4.340030	3.895080
497	1	17.644200	0.567239	4.239260
309	1	3.442100	5.723120	0.825573
372	1	0.106439	8.038760	3.145310
448	1	2.354270	6.872070	2.711470
417	1	1.147120	7.889160	0.812294
139	1	3.246820	8.441560	0.606835
36	1	0.929257	5.479220	0.876455
283	1	4.374040	8.776560	3.041770
405	1	4.503250	5.719930	2.963640
80	1	6.914660	5.441480	1.563230
230	1	6.425220	7.035390	3.530170
329	1	5.627680	7.406290	1.232780
38	1	8.324010	8.597730	4.117840
290	1	8.544990	7.552010	1.458120
301	1	8.645450	6.012570	3.407720
449	1	10.991100	6.311400	1.809820
465	1	12.768300	7.841680	2.380140
263	1	10.519100	8.309680	3.254130
316	1	11.857700	7.863680	0.115118
144	1	12.834900	5.386590	3.341320
72	1	10.677800	5.041150	3.965990
49	1	13.535600	5.937730	0.552025
216	1	15.669000	4.625650	1.009070
181	1	17.646100	5.090980	2.966240
185	1	14.768600	7.946660	0.703175
366	1	15.137800	6.329030	2.517030
487	1	16.173600	8.623870	2.470330
259	1	17.185100	6.755490	1.098930
427	1	17.470700	8.846740	0.045108
345	1	16.566600	6.937230	4.428020
57	1	14.533500	8.485390	4.208970
221	1	1.929470	12.618300	3.679080
499	1	2.177600	9.573840	2.500450
148	1	3.224060	11.419500	1.803500
299	1	1.503370	11.094900	0.417298
433	1	0.171068	12.708000	1.754870
445	1	0.704716	10.331000	4.379100
37	1	4.328960	13.278500	3.304360
231	1	6.735860	9.228750	2.469160
492	1	4.907100	13.181900	0.916798
54	1	5.421520	11.267800	3.171980
297	1	7.734840	11.061700	3.864440
341	1	7.155300	11.546000	0.984528
118	1	4.990490	10.098100	0.779478
69	1	7.129430	13.331200	2.492770
477	1	9.006040	9.775100	1.906550
247	1	7.134720	9.413440	-0.083714
262	1	12.348800	9.592660	3.976920
90	1	11.489100	9.972650	1.361410
175	1	10.122900	10.942300	4.181330
486	1	11.313700	12.185200	0.212446
261	1	12.202600	11.821300	2.881880
275	1	9.563290	12.259000	2.399430
410	1	9.192570	13.558500	0.062439
200	1	9.367450	10.981600	-0.084417
412	1	13.785600	12.183000	0.806365
291	1	17.949300	12.429400	4.111940
218	1	18.099800	10.266900	2.089390
245	1	13.897200	10.101600	2.129340
176	1	15.893700	10.402700	0.800387
387	1	15.853600	11.979700	2.572410
330	1	16.605200	13.029300	0.368046
279	1	16.478800	10.242200	4.182080
383	1	14.190100	11.482000	4.366540
371	1	2.641850	13.994900	1.379050
461	1	0.786530	14.736700	3.126870
126	1	2.647330	18.010400	3.356890
425	1	2.997140	15.447600	3.443610
178	1	2.295620	16.405500	1.340600
145	1	0.347844	17.639900	2.327550
305	1	4.334080	17.891800	1.306940
441	1	-0.043701	15.242600	0.976083
296	1	5.060550	15.387100	2.024850
171	1	6.606980	17.623200	2.437040
389	1	7.866520	15.566200	1.449000
286	1	6.941870	15.252200	3.935750
143	1	4.818460	17.349400	3.979770
255	1	8.559860	17.353200	3.892860
48	1	6.276840	16.712100	0.138470
460	1	9.009470	17.923600	0.771869
223	1	11.534400	18.172600	0.812187
463	1	11.413100	13.979600	1.853240
40	1	9.393100	14.672500	3.114800
187	1	10.527500	16.572200	2.583350
102	1	12.818300	16.040600	1.532800
293	1	10.631800	15.662500	0.474235
384	1	12.183700	15.496500	3.811330
81	1	14.236900	18.052600	0.702968
351	1	14.012000	13.831900	3.072610
170	1	16.952400	16.490900	3.551700
101	1	15.036900	14.603700	1.018290
226	1	14.483800	16.484600	2.964730
103	1	16.652900	14.403000	2.737550
206	1	16.549400	16.657700	0.988557
26	1	1.444030	0.910115	4.968030
74	1	2.672400	3.040310	5.520510
374	1	1.837750	2.842530	7.978640
66	1	2.865290	0.984242	7.128380
280	1	4.152630	1.016050	4.882990
352	1	-0.063248	2.310470	6.506000
154	1	0.623272	-0.044590	7.126020
355	1	6.622810	2.808960	5.495440
94	1	7.007950	1.177990	7.447080
358	1	8.494650	3.062670	7.418060
85	1	4.707980	2.601010	6.969090
10	1	6.806840	0.504215	4.702320
302	1	5.113740	0.003117	6.740260
63	1	4.630740	0.823765	8.969800
402	1	8.938910	1.572820	5.160740
281	1	8.885320	-0.092754	8.971820
142	1	13.143600	3.607870	4.670720
337	1	11.732300	1.495080	4.964200
306	1	10.371000	3.375360	5.881260
416	1	12.448200	2.707290	7.056310
211	1	10.260700	1.267130	7.444740
152	1	10.482000	3.772040	8.662210
208	1	12.536600	-0.007283	6.810900
110	1	18.048600	1.427240	8.913190
482	1	14.095400	1.438310	5.899000
84	1	16.137000	2.280780	5.051480
419	1	14.110900	1.239400	8.430690
443	1	14.453300	4.036280	6.367850
474	1	16.241000	0.773179	7.035470
272	1	15.963600	2.966250	8.157020
400	1	13.874600	4.309780	8.792900
388	1	17.857600	4.172340	8.467080
234	1	2.181390	8.307290	4.698650
55	1	0.686339	6.283450	4.673640
456	1	1.225570	4.688940	6.477410
455	1	2.964920	5.379160	4.716080
471	1	3.728540	4.806880	7.200180
476	1	2.310470	6.962410	6.807580
437	1	1.160210	7.945750	8.852570
434	1	1.676300	5.417150	8.742820
53	1	4.342610	7.189930	4.934080
117	1	6.394830	4.548530	7.339580
76	1	8.279770	4.739170	5.487050
317	1	5.504830	5.151680	5.260300
138	1	7.362220	6.675200	8.364930
107	1	7.266770	7.073550	5.927550
241	1	5.144420	6.895240	7.355010
127	1	9.015530	8.452760	7.597180
98	1	9.790040	6.923850	5.294880
222	1	9.580890	5.663710	7.260530
386	1	12.006100	5.250200	6.262990
238	1	12.251700	7.348420	4.762140
331	1	11.285900	7.414190	7.282060
353	1	13.202900	8.902420	6.424260
188	1	11.719600	5.778890	8.835300
161	1	17.027000	4.620550	5.689690
133	1	18.059500	6.605550	7.148850
472	1	13.754300	6.733320	7.766460
217	1	18.073400	8.579010	5.641460
169	1	15.891500	5.555200	7.503760
108	1	14.452300	6.205430	5.333180
3	1	15.738300	8.055450	6.568060
380	1	14.882900	8.999450	8.752530
83	1	3.451320	10.721200	4.645260
454	1	4.150720	9.065570	6.414760
490	1	3.432490	9.210720	8.576430
25	1	1.613030	9.549170	6.745740
164	1	3.642770	12.936500	5.592090
322	1	1.402940	11.945400	5.968380
233	1	3.461180	11.176400	7.219650
119	1	0.900861	10.914400	8.282880
51	1	2.231910	13.222100	7.846190
360	1	6.499380	9.075430	7.457220
439	1	6.041750	9.167930	4.898740
396	1	8.635250	13.098000	4.865560
128	1	6.170570	13.001100	5.020890
46	1	5.134370	13.269800	7.533970
2	1	5.707190	11.188600	6.046920
452	1	7.601140	12.751600	7.385780
67	1	8.123180	10.298600	6.016700
287	1	5.499670	10.783400	8.856750
189	1	8.235470	10.694200	8.728470
183	1	10.474000	9.146480	5.592270
406	1	9.881590	11.582500	6.554410
243	1	12.345000	11.227900	5.850770
256	1	10.935500	10.020100	7.998600
336	1	11.920800	13.188500	7.188170
469	1	11.162700	13.215600	4.645820
184	1	13.157000	10.806500	8.273440
199	1	10.277000	12.206300	8.936530
390	1	18.073600	13.334700	6.943440
464	1	17.437200	9.145170	7.968100
292	1	14.514400	12.652000	7.471820
298	1	15.066300	10.441800	6.350490
264	1	17.449600	10.998100	6.332460
89	1	16.535300	12.012500	8.438880
123	1	15.805500	12.769500	5.288620
21	1	0.756601	16.721500	4.750840
114	1	1.699040	14.495700	5.451020
18	1	2.971500	15.086200	7.170860
9	1	2.995550	17.171800	5.795700
163	1	0.417172	15.771000	7.310430
435	1	3.053840	17.250200	8.487540
428	1	7.123560	14.806900	6.601210
268	1	6.704110	17.350400	8.241910
407	1	4.675880	15.104200	5.223630
82	1	6.558440	16.824500	5.559290
15	1	4.988990	16.009500	7.354940
198	1	8.632900	15.913300	8.107900
369	1	8.542070	17.845800	6.528950
64	1	6.500720	14.889500	8.962380
225	1	13.466800	13.887000	5.564160
446	1	9.135320	15.628300	5.521180
204	1	9.670020	13.902000	7.125530
34	1	10.735800	17.589200	5.069170
239	1	11.442600	15.381600	6.211380
258	1	13.192300	16.724400	5.328240
5	1	10.776700	17.093200	7.800760
13	1	11.250300	14.911000	8.731490
328	1	15.275900	17.991200	4.846890
109	1	13.658900	14.978100	7.742530
496	1	17.635600	14.797200	5.199180
420	1	14.718800	17.276700	7.175100
488	1	17.110800	17.121800	5.986070
120	1	15.200900	15.452800	5.111990
214	1	16.137200	14.803800	7.430200
414	1	17.018900	17.215000	8.321040
347	1	2.056390	1.144230	9.585390
458	1	1.015600	3.262180	10.360600
160	1	3.000820	2.525940	11.682300
333	1	3.779530	3.299210	9.383530
35	1	0.218532	0.736558	11.265600
426	1	1.428760	3.972730	12.995600
327	1	1.864020	1.056360	13.219600
282	1	4.411820	1.226470	13.267000
236	1	3.447110	-0.103254	11.115700
382	1	6.245060	2.944850	9.174130
220	1	5.265500	1.901050	11.242600
172	1	6.824770	0.401618	10.164300
132	1	6.871090	0.821569	12.775100
12	1	7.404190	3.399570	11.471500
403	1	6.242520	3.063440	13.487300
33	1	4.896770	4.191220	11.613200
73	1	8.766690	2.118960	9.751050
166	1	8.914750	2.276670	13.228200
484	1	8.952210	0.044247	11.638200
50	1	12.272200	2.341820	9.545600
75	1	10.638500	2.442220	11.622800
192	1	13.125900	2.686560	12.209000
224	1	13.375400	0.666708	10.950700
240	1	10.909000	0.220683	9.933100
498	1	10.924300	0.224424	13.345000
311	1	13.583000	-0.095147	13.239400
334	1	18.183300	2.143940	13.415200
4	1	15.873800	0.285336	9.797460
359	1	16.900300	2.627820	10.969900
357	1	14.753000	2.835260	10.572700
111	1	16.001500	0.675572	12.164700
431	1	15.510400	2.980410	13.169600
87	1	3.488550	6.878080	9.153330
156	1	2.029600	7.503730	11.027500
193	1	0.594842	6.509130	12.764900
44	1	3.362190	8.645150	13.012000
436	1	2.585040	5.108900	11.051400
289	1	0.118860	5.806890	10.274300
137	1	3.045580	6.319000	13.405300
457	1	4.529810	6.828360	11.534500
274	1	8.061030	4.724670	9.307040
413	1	5.620330	8.090310	9.610810
14	1	5.491670	5.343900	9.485010
91	1	7.280520	6.163280	11.194300
219	1	6.237980	8.408870	12.082100
491	1	7.930500	8.493710	9.953460
321	1	5.761390	5.583250	13.339300
30	1	8.572010	5.070430	13.343500
105	1	12.338900	4.495630	10.590300
113	1	12.333600	8.322730	9.271560
332	1	9.425720	7.209110	11.746000
475	1	11.417200	4.767000	12.749300
470	1	9.706140	4.762380	11.038600
278	1	9.823510	6.923200	9.426290
377	1	11.695800	6.901370	11.393800
468	1	13.140000	9.036860	11.308100
313	1	17.576600	4.466500	12.473300
115	1	14.455900	4.807420	11.909800
418	1	14.201200	7.113480	12.568400
493	1	16.529800	7.248250	9.101960
56	1	18.098100	8.168640	10.990300
61	1	16.047900	4.938980	9.959520
323	1	14.125500	6.637320	10.131400
338	1	16.510300	6.389420	11.695300
140	1	16.954100	8.109840	13.380800
362	1	15.644300	8.752470	11.122000
409	1	0.974204	9.190860	12.904700
473	1	2.961830	11.790400	9.731150
450	1	1.507360	9.900620	10.486900
6	1	2.859030	11.221100	12.237300
180	1	0.461942	11.583600	11.916900
112	1	2.429970	13.368300	11.455000
300	1	0.499029	12.667100	9.679540
249	1	4.032630	9.629220	10.836800
28	1	4.062140	13.285900	13.308500
349	1	6.817360	12.657400	9.832920
253	1	4.831760	12.305500	10.949300
167	1	6.762860	10.385700	10.980800
480	1	7.064350	12.172100	12.439000
99	1	8.547250	9.606530	12.216400
17	1	4.986400	10.574200	13.257600
248	1	9.175720	11.689900	11.061900
41	1	10.846200	9.546400	12.551100
229	1	10.239500	9.352420	10.254400
265	1	11.831100	11.099800	10.723900
320	1	10.770600	12.257600	12.775700
438	1	13.035400	10.960200	13.012000
432	1	12.640200	12.879900	9.396680
58	1	13.153800	13.235900	11.860800
150	1	14.827800	9.507870	13.265000
423	1	16.900500	10.389500	12.501000
254	1	17.389200	10.433800	10.187500
147	1	14.525900	11.120200	10.478100
489	1	16.813900	12.518000	11.055700
8	1	14.998900	12.224200	12.757800
444	1	17.251900	13.155100	13.495800
481	1	15.113500	13.611300	9.719370
288	1	1.522650	15.131700	9.426460
16	1	1.321970	16.779900	11.717400
367	1	3.496770	15.678800	11.417200
304	1	0.523688	17.323500	9.388810
368	1	0.177139	14.299100	11.606400
22	1	4.042090	14.246400	9.385470
146	1	2.089890	15.082200	13.248500
186	1	3.278690	17.315400	13.497700
310	1	8.893770	14.012500	9.577280
483	1	5.034790	16.648800	9.769090
232	1	5.463180	17.318900	11.989000
378	1	7.628910	16.378500	10.560700
124	1	5.922100	14.661900	11.386100
319	1	8.589310	14.080900	12.181600
478	1	7.340860	16.280800	13.164400
500	1	10.941500	13.693300	10.845700
158	1	13.121000	17.418800	9.268640
325	1	12.018800	17.024700	11.849700
134	1	9.664150	16.378500	12.871500
395	1	10.203400	16.218200	10.446300
399	1	11.443400	14.840100	12.767100
106	1	13.085000	15.250100	10.640200
197	1	13.785400	15.294700	13.358100
65	1	17.506800	14.930500	9.611570
350	1	15.314900	16.093900	9.407800
343	1	17.153700	16.782300	11.187500
442	1	14.731500	17.130800	11.340000
260	1	15.839800	14.823100	11.900500
79	1	18.066400	17.984000	13.367700
269	1	15.732800	16.929600	13.514000
11	1	17.858500	15.682800	13.396900
29	1	3.814670	3.937700	13.995500
391	1	1.418960	1.629040	17.375300
62	1	1.707600	2.735760	15.184200
19	1	3.401400	3.840980	16.908000
70	1	0.146003	0.711307	15.567600
104	1	2.674430	0.389719	15.405700
277	1	0.756996	4.068190	17.067100
271	1	4.293090	2.004980	15.609300
45	1	6.920820	1.598230	15.320500
227	1	5.940060	2.492540	17.442100
237	1	5.676630	3.905600	15.733000
398	1	8.370560	1.941290	17.599300
195	1	8.170860	3.626610	15.384900
284	1	8.417480	-0.134271	14.298800
168	1	5.192060	-0.127263	16.854600
318	1	11.122200	1.326880	17.449200
411	1	11.459700	2.486910	14.064900
47	1	10.141800	3.643240	17.145600
397	1	9.652810	1.534460	15.557900
424	1	12.031600	0.294248	15.389300
394	1	12.394000	2.924470	16.303100
356	1	13.446200	4.014290	14.336300
7	1	13.824700	1.004200	17.131400
440	1	13.961600	3.635570	17.911200
429	1	13.918100	1.649310	14.788600
251	1	17.742300	3.855630	14.885100
373	1	17.361800	2.189890	16.908000
346	1	16.195000	0.986131	14.776700
203	1	15.288000	3.179080	15.764500
173	1	16.053200	0.066418	17.324800
86	1	1.247850	7.734550	14.730800
31	1	1.594750	5.383820	15.161000
116	1	2.546470	6.536530	17.118600
335	1	3.423950	8.253940	15.542300
122	1	4.332880	5.870580	15.518500
210	1	0.111487	6.732880	17.175000
96	1	7.909570	7.511270	13.727800
415	1	7.684120	4.541040	17.607000
174	1	7.486950	6.858890	17.834500
451	1	5.373580	5.342460	17.913600
179	1	5.395650	7.900680	14.289300
421	1	5.054310	7.832840	17.155400
340	1	6.769980	5.926040	15.516100
294	1	7.311740	8.428930	15.995400
250	1	9.023990	6.392980	15.733600
307	1	10.514500	7.216930	13.850300
244	1	9.941200	6.145510	17.982400
303	1	10.770900	4.620990	15.008900
295	1	9.293610	8.537580	17.524200
408	1	12.012400	5.445160	16.937900
190	1	12.748600	6.282040	14.598100
344	1	11.157900	7.605660	16.139100
141	1	12.713400	8.536460	14.056300
401	1	13.554700	7.654420	16.720800
32	1	14.473600	5.445090	16.430500
130	1	15.516300	5.254830	14.098000
194	1	17.427600	6.180970	14.964900
215	1	16.052100	6.827350	17.244000
27	1	15.037500	7.623170	14.915800
354	1	16.708100	4.556990	17.139100
453	1	17.550600	8.701030	15.686800
459	1	1.318500	9.160140	16.776700
348	1	1.584960	12.706100	13.842300
92	1	3.861920	11.959700	15.293400
191	1	2.377070	10.190900	14.554000
326	1	3.395050	10.444000	17.226600
422	1	1.586260	11.824600	16.241100
182	1	0.461784	13.205300	17.722100
364	1	3.206800	12.879400	17.707800
266	1	0.053110	10.991100	14.570300
467	1	7.104410	9.836590	14.002800
95	1	6.323680	12.034700	14.790200
42	1	5.272990	9.948310	15.801200
267	1	5.644810	11.914000	17.323700
339	1	7.934610	10.868500	16.342100
342	1	8.711760	11.750100	14.085300
1	1	8.124400	13.466800	16.236400
121	1	13.450800	9.886850	18.022200
39	1	9.537740	9.219780	15.017100
252	1	11.487100	10.909300	14.680200
385	1	12.702800	12.228300	16.713500
100	1	11.217700	9.930600	16.927000
52	1	10.153000	12.197500	16.268300
71	1	12.281300	13.101300	14.578000
131	1	13.742900	10.151200	15.545100
177	1	15.578800	9.203480	17.007200
202	1	14.664100	12.722500	14.965300
375	1	15.241700	11.614500	17.037400
205	1	16.080200	10.646200	14.894400
312	1	17.684800	10.908400	17.340800
270	1	17.099600	12.807200	15.997400
363	1	4.064110	15.512500	18.067200
212	1	2.697120	14.315800	15.493800
213	1	2.674040	17.674400	17.410100
59	1	1.676090	15.215600	17.507300
165	1	1.175720	16.809500	15.194600
20	1	3.729570	16.491700	15.662100
379	1	0.379145	14.423400	15.236800
155	1	0.211322	17.290000	17.606800
23	1	6.639750	14.183600	18.203300
381	1	4.840630	15.431300	13.749100
242	1	7.686010	17.976600	16.646600
324	1	5.809240	17.693800	14.545200
447	1	4.990290	13.988100	16.088300
308	1	6.956630	14.115700	14.129500
466	1	6.365450	15.904700	16.088700
24	1	8.528160	15.726600	17.573100
392	1	8.799510	15.946600	15.196900
495	1	12.794500	14.333600	18.144900
376	1	9.861400	13.974600	14.263800
159	1	10.054000	17.418500	16.547400
228	1	12.405400	16.907700	17.256100
485	1	11.632600	16.394800	14.547900
153	1	10.706500	14.832200	16.473900
370	1	13.214000	14.853200	15.812800
285	1	14.326200	17.473800	15.480400
276	1	17.240600	15.080100	17.252900
201	1	14.945000	13.870000	17.178100
207	1	14.922300	16.234400	17.356500
235	1	16.976100	17.118300	15.509800
462	1	15.749300	14.890900	15.028500
