Position data
84484	atoms
1	atom types
0.00		100.000000	xlo xhi
0.00		100.000000	ylo yhi
0.00		100.000000	zlo zhi

Atoms

1	1	68.950468	18.604083	91.042817
2	1	68.597947	20.021556	93.150911
3	1	70.353316	18.151754	93.141622
4	1	67.856389	17.566656	93.117498
5	1	66.806062	16.601511	88.910598
6	1	66.453541	18.018984	91.018692
7	1	68.208910	16.149182	91.009403
8	1	65.711983	15.564084	90.985278
9	1	64.661656	14.598939	86.778379
10	1	64.309135	16.016412	88.886473
11	1	66.064504	14.146610	88.877184
12	1	63.567577	13.561512	88.853059
13	1	62.517251	12.596367	84.646160
14	1	62.164730	14.013841	86.754254
15	1	63.920098	12.144038	86.744965
16	1	61.423171	11.558940	86.720840
17	1	60.372845	10.593795	82.513941
18	1	60.020324	12.011269	84.622035
19	1	61.775692	10.141466	84.612746
20	1	59.278765	9.556368	84.588621
21	1	58.228439	8.591223	80.381722
22	1	57.875918	10.008697	82.489816
23	1	59.631286	8.138894	82.480527
24	1	57.134360	7.553796	82.456402
25	1	56.084033	6.588651	78.249502
26	1	55.731512	8.006125	80.357597
27	1	57.486881	6.136322	80.348308
28	1	54.989954	5.551224	80.324183
29	1	53.939627	4.586079	76.117283
30	1	53.587106	6.003553	78.225378
31	1	55.342475	4.133751	78.216089
32	1	52.845548	3.548652	78.191964
33	1	51.795222	2.583507	73.985064
34	1	51.442701	4.000981	76.093159
35	1	53.198069	2.131179	76.083870
36	1	50.701142	1.546080	76.059745
37	1	49.650816	0.580935	71.852845
38	1	49.298295	1.998409	73.960939
39	1	51.053663	0.128607	73.951651
40	1	48.556736	99.543508	73.927526
41	1	47.153889	99.995837	71.828720
42	1	71.799916	17.771708	88.958848
43	1	71.447395	19.189182	91.066942
44	1	73.202763	17.319379	91.057653
45	1	70.705837	16.734281	91.033528
46	1	69.655510	15.769136	86.826629
47	1	69.302989	17.186610	88.934723
48	1	71.058358	15.316807	88.925434
49	1	68.561431	14.731709	88.901309
50	1	67.511104	13.766564	84.694409
51	1	67.158583	15.184038	86.802504
52	1	68.913952	13.314235	86.793215
53	1	66.417025	12.729137	86.769090
54	1	65.366698	11.763992	82.562190
55	1	65.014177	13.181466	84.670285
56	1	66.769546	11.311664	84.660996
57	1	64.272619	10.726565	84.636871
58	1	63.222293	9.761420	80.429971
59	1	62.869772	11.178894	82.538066
60	1	64.625140	9.309092	82.528777
61	1	62.128213	8.723993	82.504652
62	1	61.077887	7.758848	78.297752
63	1	60.725366	9.176322	80.405846
64	1	62.480734	7.306520	80.396558
65	1	59.983807	6.721421	80.372433
66	1	58.933481	5.756276	76.165533
67	1	58.580960	7.173750	78.273627
68	1	60.336328	5.303948	78.264339
69	1	57.839402	4.718849	78.240214
70	1	56.789075	3.753704	74.033314
71	1	56.436554	5.171178	76.141408
72	1	58.191923	3.301376	76.132119
73	1	55.694996	2.716277	76.107995
74	1	54.644669	1.751132	71.901095
75	1	54.292148	3.168606	74.009189
76	1	56.047517	1.298804	73.999900
77	1	53.550590	0.713705	73.975775
78	1	52.147743	1.166034	71.876970
79	1	74.649364	16.939333	86.874878
80	1	74.296843	18.356807	88.982973
81	1	76.052211	16.487005	88.973684
82	1	73.555284	15.901906	88.949559
83	1	72.504958	14.936761	84.742659
84	1	72.152437	16.354235	86.850753
85	1	73.907805	14.484433	86.841465
86	1	71.410879	13.899334	86.817340
87	1	70.360552	12.934189	82.610440
88	1	70.008031	14.351663	84.718534
89	1	71.763400	12.481861	84.709246
90	1	69.266473	11.896762	84.685121
91	1	68.216146	10.931617	80.478221
92	1	67.863625	12.349091	82.586315
93	1	69.618994	10.479289	82.577026
94	1	67.122067	9.894190	82.552902
95	1	66.071740	8.929045	78.346002
96	1	65.719219	10.346519	80.454096
97	1	67.474588	8.476717	80.444807
98	1	64.977661	7.891618	80.420682
99	1	63.927335	6.926473	76.213783
100	1	63.574814	8.343947	78.321877
101	1	65.330182	6.474145	78.312588
102	1	62.833255	5.889046	78.288463
103	1	61.782929	4.923901	74.081564
104	1	61.430408	6.341375	76.189658
105	1	63.185776	4.471573	76.180369
106	1	60.688849	3.886474	76.156244
107	1	59.638523	2.921329	71.949345
108	1	59.286002	4.338803	74.057439
109	1	61.041370	2.469001	74.048150
110	1	58.544444	1.883902	74.024025
111	1	57.141596	2.336231	71.925220
112	1	77.498811	16.106958	84.790909
113	1	77.146290	17.524432	86.899003
114	1	78.901659	15.654630	86.889714
115	1	76.404732	15.069531	86.865589
116	1	75.354406	14.104386	82.658690
117	1	75.001885	15.521860	84.766784
118	1	76.757253	13.652058	84.757495
119	1	74.260326	13.066959	84.733370
120	1	73.210000	12.101814	80.526471
121	1	72.857479	13.519288	82.634565
122	1	74.612847	11.649486	82.625276
123	1	72.115921	11.064387	82.601151
124	1	71.065594	10.099242	78.394252
125	1	70.713073	11.516716	80.502346
126	1	72.468442	9.646914	80.493057
127	1	69.971515	9.061815	80.468932
128	1	68.921188	8.096671	76.262033
129	1	68.568667	9.514144	78.370127
130	1	70.324036	7.644342	78.360838
131	1	67.827109	7.059243	78.336713
132	1	66.776782	6.094099	74.129814
133	1	66.424261	7.511572	76.237908
134	1	68.179630	5.641770	76.228619
135	1	65.682703	5.056671	76.204494
136	1	64.632377	4.091527	71.997594
137	1	64.279856	5.509000	74.105689
138	1	66.035224	3.639198	74.096400
139	1	63.538297	3.054099	74.072275
140	1	62.135450	3.506428	71.973470
141	1	80.348259	15.274584	82.706940
142	1	79.995738	16.692057	84.815034
143	1	81.751107	14.822255	84.805745
144	1	79.254180	14.237156	84.781620
145	1	78.203853	13.272012	80.574721
146	1	77.851332	14.689485	82.682815
147	1	79.606701	12.819683	82.673526
148	1	77.109774	12.234584	82.649401
149	1	76.059448	11.269440	78.442501
150	1	75.706927	12.686913	80.550596
151	1	77.462295	10.817111	80.541307
152	1	74.965368	10.232012	80.517182
153	1	73.915042	9.266868	76.310282
154	1	73.562521	10.684341	78.418377
155	1	75.317889	8.814539	78.409088
156	1	72.820963	8.229440	78.384963
157	1	71.770636	7.264296	74.178063
158	1	71.418115	8.681769	76.286157
159	1	73.173484	6.811967	76.276869
160	1	70.676557	6.226868	76.252744
161	1	69.626230	5.261724	72.045844
162	1	69.273709	6.679197	74.153938
163	1	71.029078	4.809395	74.144650
164	1	68.532151	4.224296	74.120525
165	1	67.129303	4.676625	72.021719
166	1	83.197707	14.442209	80.622970
167	1	82.845186	15.859682	82.731064
168	1	84.600555	13.989880	82.721776
169	1	82.103628	13.404781	82.697651
170	1	81.053301	12.439637	78.490751
171	1	80.700780	13.857110	80.598845
172	1	82.456149	11.987308	80.589557
173	1	79.959222	11.402209	80.565432
174	1	78.908895	10.437065	76.358532
175	1	78.556374	11.854538	78.466626
176	1	80.311743	9.984736	78.457338
177	1	77.814816	9.399637	78.433213
178	1	76.764490	8.434493	74.226313
179	1	76.411969	9.851966	76.334407
180	1	78.167337	7.982164	76.325118
181	1	75.670410	7.397065	76.300994
182	1	74.620084	6.431921	72.094094
183	1	74.267563	7.849394	74.202188
184	1	76.022931	5.979592	74.192899
185	1	73.526005	5.394494	74.168774
186	1	72.123157	5.846822	72.069969
187	1	86.047155	13.609834	78.539001
188	1	85.694634	15.027307	80.647095
189	1	87.450002	13.157505	80.637806
190	1	84.953076	12.572407	80.613681
191	1	83.902749	11.607262	76.406782
192	1	83.550228	13.024735	78.514876
193	1	85.305597	11.154933	78.505587
194	1	82.808670	10.569835	78.481462
195	1	81.758343	9.604690	74.274563
196	1	81.405822	11.022163	76.382657
197	1	83.161191	9.152361	76.373368
198	1	80.664264	8.567263	76.349243
199	1	79.613937	7.602118	72.142344
200	1	79.261416	9.019591	74.250438
201	1	81.016785	7.149789	74.241149
202	1	78.519858	6.564691	74.217024
203	1	77.117011	7.017019	72.118219
204	1	88.896603	12.777459	76.455032
205	1	88.544082	14.194932	78.563126
206	1	87.802523	11.740032	78.529712
207	1	86.752197	10.774887	74.322813
208	1	86.399676	12.192360	76.430907
209	1	88.155044	10.322558	76.421618
210	1	85.658118	9.737460	76.397493
211	1	84.607791	8.772315	72.190593
212	1	84.255270	10.189788	74.298688
213	1	86.010639	8.319986	74.289399
214	1	83.513712	7.734888	74.265274
215	1	82.110864	8.187216	72.166469
216	1	89.601645	9.942512	72.238843
217	1	89.249124	11.359986	74.346937
218	1	91.004492	9.490183	74.337649
219	1	88.507565	8.905085	74.313524
220	1	87.104718	9.357414	72.214718
221	1	68.289179	21.511312	88.977425
222	1	67.936658	22.928786	91.085520
223	1	69.692026	21.058984	91.076231
224	1	67.195099	20.473885	91.052106
225	1	66.144773	19.508740	86.845206
226	1	65.792252	20.926214	88.953300
227	1	67.547620	19.056412	88.944012
228	1	65.050694	18.471313	88.919887
229	1	64.000367	17.506168	84.712987
230	1	63.647846	18.923642	86.821081
231	1	65.403215	17.053840	86.811793
232	1	62.906288	16.468741	86.787668
233	1	61.855961	15.503596	82.580768
234	1	61.503440	16.921070	84.688862
235	1	63.258809	15.051268	84.679573
236	1	60.761882	14.466169	84.655449
237	1	59.711556	13.501025	80.448549
238	1	59.359035	14.918498	82.556643
239	1	61.114403	13.048696	82.547354
240	1	58.617476	12.463597	82.523229
241	1	57.567150	11.498453	78.316330
242	1	57.214629	12.915926	80.424424
243	1	58.969997	11.046124	80.415135
244	1	56.473070	10.461025	80.391010
245	1	55.422744	9.495881	76.184111
246	1	55.070223	10.913354	78.292205
247	1	56.825591	9.043552	78.282916
248	1	54.328665	8.458453	78.258791
249	1	53.278338	7.493309	74.051892
250	1	52.925817	8.910782	76.159986
251	1	54.681186	7.040980	76.150697
252	1	52.184259	6.455881	76.126572
253	1	51.133932	5.490737	71.919673
254	1	50.781411	6.908210	74.027767
255	1	52.536780	5.038408	74.018478
256	1	50.039853	4.453309	73.994353
257	1	48.989527	3.488165	69.787453
258	1	48.637006	4.905638	71.895548
259	1	50.392374	3.035836	71.886259
260	1	47.895447	2.450737	71.862134
261	1	46.492600	2.903066	69.763329
262	1	48.247968	1.033264	69.754040
263	1	45.751041	0.448165	69.729915
264	1	71.138627	20.678938	86.893456
265	1	70.786106	22.096411	89.001550
266	1	72.541474	20.226609	88.992261
267	1	70.044547	19.641510	88.968136
268	1	68.994221	18.676366	84.761237
269	1	68.641700	20.093839	86.869331
270	1	70.397068	18.224037	86.860042
271	1	67.900141	17.638938	86.835917
272	1	66.849815	16.673794	82.629018
273	1	66.497294	18.091267	84.737112
274	1	68.252662	16.221465	84.727823
275	1	65.755736	15.636366	84.703698
276	1	64.705409	14.671222	80.496799
277	1	64.352888	16.088695	82.604893
278	1	66.108257	14.218893	82.595604
279	1	63.611330	13.633794	82.571479
280	1	62.561003	12.668650	78.364580
281	1	62.208482	14.086123	80.472674
282	1	63.963851	12.216321	80.463385
283	1	61.466924	11.631222	80.439260
284	1	60.416598	10.666078	76.232360
285	1	60.064077	12.083551	78.340455
286	1	61.819445	10.213749	78.331166
287	1	59.322518	9.628650	78.307041
288	1	58.272192	8.663506	74.100141
289	1	57.919671	10.080979	76.208236
290	1	59.675039	8.211177	76.198947
291	1	57.178112	7.626078	76.174822
292	1	56.127786	6.660934	71.967922
293	1	55.775265	8.078407	74.076017
294	1	57.530633	6.208605	74.066728
295	1	55.033707	5.623506	74.042603
296	1	53.983380	4.658362	69.835703
297	1	53.630859	6.075835	71.943797
298	1	55.386228	4.206033	71.934509
299	1	52.889301	3.620935	71.910384
300	1	51.486453	4.073263	69.811578
301	1	53.241822	2.203461	69.802290
302	1	50.744895	1.618363	69.778165
303	1	73.988074	19.846563	84.809487
304	1	73.635553	21.264036	86.917581
305	1	75.390922	19.394234	86.908292
306	1	72.893995	18.809135	86.884167
307	1	71.843669	17.843991	82.677268
308	1	71.491148	19.261464	84.785362
309	1	73.246516	17.391662	84.776073
310	1	70.749589	16.806563	84.751948
311	1	69.699263	15.841419	80.545048
312	1	69.346742	17.258892	82.653143
313	1	71.102110	15.389090	82.643854
314	1	68.605183	14.803991	82.619729
315	1	67.554857	13.838847	78.412829
316	1	67.202336	15.256320	80.520924
317	1	68.957705	13.386518	80.511635
318	1	66.460778	12.801419	80.487510
319	1	65.410451	11.836275	76.280610
320	1	65.057930	13.253748	78.388704
321	1	66.813299	11.383946	78.379416
322	1	64.316372	10.798848	78.355291
323	1	63.266045	9.833703	74.148391
324	1	62.913524	11.251176	76.256485
325	1	64.668893	9.381374	76.247197
326	1	62.171966	8.796276	76.223072
327	1	61.121640	7.831131	72.016172
328	1	60.769119	9.248604	74.124266
329	1	62.524487	7.378802	74.114977
330	1	60.027560	6.793704	74.090853
331	1	58.977234	5.828559	69.883953
332	1	58.624713	7.246032	71.992047
333	1	60.380081	5.376230	71.982758
334	1	57.883154	4.791132	71.958634
335	1	56.480307	5.243460	69.859828
336	1	58.235675	3.373658	69.850539
337	1	55.738749	2.788560	69.826414
338	1	76.837522	19.014188	82.725517
339	1	76.485001	20.431661	84.833611
340	1	78.240370	18.561859	84.824323
341	1	75.743443	17.976761	84.800198
342	1	74.693116	17.011616	80.593298
343	1	74.340595	18.429089	82.701392
344	1	76.095964	16.559287	82.692104
345	1	73.599037	15.974189	82.667979
346	1	72.548711	15.009044	78.461079
347	1	72.196190	16.426517	80.569173
348	1	73.951558	14.556715	80.559884
349	1	71.454631	13.971617	80.535760
350	1	70.404305	13.006472	76.328860
351	1	70.051784	14.423945	78.436954
352	1	71.807152	12.554143	78.427665
353	1	69.310226	11.969045	78.403541
354	1	68.259899	11.003900	74.196641
355	1	67.907378	12.421373	76.304735
356	1	69.662747	10.551571	76.295446
357	1	67.165820	9.966473	76.271321
358	1	66.115493	9.001328	72.064422
359	1	65.762972	10.418801	74.172516
360	1	67.518341	8.548999	74.163227
361	1	65.021414	7.963901	74.139102
362	1	63.971087	6.998756	69.932203
363	1	63.618566	8.416229	72.040297
364	1	65.373935	6.546427	72.031008
365	1	62.877008	5.961329	72.006883
366	1	61.474161	6.413657	69.908078
367	1	63.229529	4.543855	69.898789
368	1	60.732602	3.958757	69.874664
369	1	79.686970	18.181813	80.641548
370	1	79.334449	19.599286	82.749642
371	1	81.089818	17.729484	82.740353
372	1	78.592891	17.144386	82.716228
373	1	77.542564	16.179241	78.509329
374	1	77.190043	17.596714	80.617423
375	1	78.945412	15.726912	80.608134
376	1	76.448485	15.141814	80.584009
377	1	75.398158	14.176669	76.377110
378	1	75.045637	15.594142	78.485204
379	1	76.801006	13.724340	78.475915
380	1	74.304079	13.139242	78.451790
381	1	73.253753	12.174097	74.244891
382	1	72.901232	13.591570	76.352985
383	1	74.656600	11.721768	76.343696
384	1	72.159673	11.136670	76.319571
385	1	71.109347	10.171525	72.112672
386	1	70.756826	11.588998	74.220766
387	1	72.512194	9.719196	74.211477
388	1	70.015268	9.134098	74.187352
389	1	68.964941	8.168953	69.980452
390	1	68.612420	9.586426	72.088547
391	1	70.367789	7.716624	72.079258
392	1	67.870862	7.131526	72.055133
393	1	66.468014	7.583855	69.956328
394	1	68.223383	5.714052	69.947039
395	1	65.726456	5.128954	69.922914
396	1	82.536418	17.349438	78.557579
397	1	82.183897	18.766911	80.665673
398	1	83.939265	16.897109	80.656384
399	1	81.442339	16.312011	80.632259
400	1	80.392012	15.346866	76.425359
401	1	80.039491	16.764339	78.533454
402	1	81.794860	14.894537	78.524165
403	1	79.297933	14.309439	78.500040
404	1	78.247606	13.344294	74.293140
405	1	77.895085	14.761768	76.401235
406	1	79.650454	12.891965	76.391946
407	1	77.153527	12.306867	76.367821
408	1	76.103200	11.341722	72.160921
409	1	75.750679	12.759196	74.269016
410	1	77.506048	10.889393	74.259727
411	1	75.009121	10.304295	74.235602
412	1	73.958795	9.339150	70.028702
413	1	73.606274	10.756624	72.136796
414	1	75.361642	8.886821	72.127508
415	1	72.864715	8.301723	72.103383
416	1	71.461868	8.754052	70.004577
417	1	73.217236	6.884249	69.995289
418	1	70.720310	6.299151	69.971164
419	1	85.385866	16.517063	76.473609
420	1	85.033345	17.934537	78.581703
421	1	86.788713	16.064734	78.572415
422	1	84.291786	15.479636	78.548290
423	1	83.241460	14.514491	74.341390
424	1	82.888939	15.931965	76.449484
425	1	84.644307	14.062162	76.440196
426	1	82.147381	13.477064	76.416071
427	1	81.097054	12.511919	72.209171
428	1	80.744533	13.929393	74.317265
429	1	82.499902	12.059591	74.307976
430	1	80.002975	11.474492	74.283852
431	1	78.952648	10.509347	70.076952
432	1	78.600127	11.926821	72.185046
433	1	80.355496	10.057019	72.175757
434	1	77.858569	9.471920	72.151632
435	1	76.455721	9.924249	70.052827
436	1	78.211090	8.054447	70.043538
437	1	75.714163	7.469348	70.019413
438	1	88.235313	15.684688	74.389640
439	1	87.882792	17.102162	76.497734
440	1	89.638161	15.232360	76.488445
441	1	87.141234	14.647261	76.464320
442	1	86.090908	13.682116	72.257421
443	1	85.738387	15.099590	74.365515
444	1	87.493755	13.229788	74.356226
445	1	84.996828	12.644689	74.332101
446	1	83.946502	11.679544	70.125202
447	1	83.593981	13.097018	72.233296
448	1	85.349349	11.227216	72.224007
449	1	82.852423	10.642117	72.199882
450	1	81.449575	11.094446	70.101077
451	1	80.708017	8.639545	70.067663
452	1	91.084761	14.852313	72.305671
453	1	90.732240	16.269787	74.413765
454	1	89.990682	13.814886	74.380351
455	1	88.940355	12.849741	70.173451
456	1	88.587834	14.267215	72.281546
457	1	90.343203	12.397413	72.272257
458	1	87.846276	11.812314	72.248132
459	1	86.443429	12.264643	70.149327
460	1	91.437282	13.434840	70.197576
461	1	67.627890	24.418542	86.912034
462	1	67.275369	25.836015	89.020128
463	1	69.030737	23.966213	89.010839
464	1	66.533810	23.381114	88.986714
465	1	65.483484	22.415970	84.779814
466	1	65.130963	23.833443	86.887909
467	1	66.886331	21.963641	86.878620
468	1	64.389404	21.378543	86.854495
469	1	63.339078	20.413398	82.647595
470	1	62.986557	21.830871	84.755690
471	1	64.741925	19.961069	84.746401
472	1	62.244999	19.375971	84.722276
473	1	61.194672	18.410826	80.515376
474	1	60.842151	19.828299	82.623471
475	1	62.597520	17.958497	82.614182
476	1	60.100593	17.373399	82.590057
477	1	59.050266	16.408254	78.383157
478	1	58.697745	17.825727	80.491251
479	1	60.453114	15.955925	80.481963
480	1	57.956187	15.370827	80.457838
481	1	56.905861	14.405682	76.250938
482	1	56.553340	15.823155	78.359032
483	1	58.308708	13.953353	78.349744
484	1	55.811781	13.368255	78.325619
485	1	54.761455	12.403110	74.118719
486	1	54.408934	13.820583	76.226813
487	1	56.164302	11.950781	76.217524
488	1	53.667375	11.365683	76.193400
489	1	52.617049	10.400538	71.986500
490	1	52.264528	11.818011	74.094594
491	1	54.019896	9.948209	74.085305
492	1	51.522970	9.363111	74.061180
493	1	50.472643	8.397966	69.854281
494	1	50.120122	9.815439	71.962375
495	1	51.875491	7.945637	71.953086
496	1	49.378564	7.360539	71.928961
497	1	48.328237	6.395394	67.722062
498	1	47.975716	7.812867	69.830156
499	1	49.731085	5.943065	69.820867
500	1	47.234158	5.357967	69.796742
501	1	46.183831	4.392822	65.589843
502	1	45.831310	5.810295	67.697937
503	1	47.586679	3.940493	67.688648
504	1	45.089752	3.355395	67.664523
505	1	43.686905	3.807724	65.565718
506	1	70.477337	23.586167	84.828064
507	1	70.124816	25.003640	86.936158
508	1	71.880185	23.133838	86.926870
509	1	69.383258	22.548740	86.902745
510	1	68.332932	21.583595	82.695845
511	1	67.980411	23.001068	84.803939
512	1	69.735779	21.131266	84.794651
513	1	67.238852	20.546168	84.770526
514	1	66.188526	19.581023	80.563626
515	1	65.836005	20.998496	82.671720
516	1	67.591373	19.128694	82.662431
517	1	65.094446	18.543596	82.638307
518	1	64.044120	17.578451	78.431407
519	1	63.691599	18.995924	80.539501
520	1	65.446967	17.126122	80.530212
521	1	62.950041	16.541024	80.506087
522	1	61.899714	15.575879	76.299188
523	1	61.547193	16.993352	78.407282
524	1	63.302562	15.123550	78.397993
525	1	60.805635	14.538452	78.373868
526	1	59.755308	13.573307	74.166969
527	1	59.402787	14.990780	76.275063
528	1	61.158156	13.120978	76.265774
529	1	58.661229	12.535880	76.241649
530	1	57.610903	11.570735	72.034750
531	1	57.258382	12.988208	74.142844
532	1	59.013750	11.118406	74.133555
533	1	56.516823	10.533308	74.109430
534	1	55.466497	9.568163	69.902531
535	1	55.113976	10.985637	72.010625
536	1	56.869344	9.115834	72.001336
537	1	54.372417	8.530736	71.977211
538	1	53.322091	7.565591	67.770312
539	1	52.969570	8.983065	69.878406
540	1	54.724938	7.113262	69.869117
541	1	52.228012	6.528164	69.844992
542	1	51.177685	5.563019	65.638092
543	1	50.825164	6.980493	67.746187
544	1	52.580533	5.110690	67.736898
545	1	50.083606	4.525592	67.712773
546	1	48.680758	4.977921	65.613968
547	1	73.326785	22.753792	82.744095
548	1	72.974264	24.171265	84.852189
549	1	74.729633	22.301463	84.842900
550	1	72.232706	21.716365	84.818775
551	1	71.182379	20.751220	80.611876
552	1	70.829858	22.168693	82.719970
553	1	72.585227	20.298891	82.710681
554	1	70.088300	19.713793	82.686556
555	1	69.037974	18.748648	78.479657
556	1	68.685453	20.166121	80.587751
557	1	70.440821	18.296319	80.578462
558	1	67.943894	17.711221	80.554337
559	1	66.893568	16.746076	76.347438
560	1	66.541047	18.163550	78.455532
561	1	68.296415	16.293747	78.446243
562	1	65.799488	15.708649	78.422118
563	1	64.749162	14.743504	74.215219
564	1	64.396641	16.160978	76.323313
565	1	66.152009	14.291175	76.314024
566	1	63.655083	13.706077	76.289899
567	1	62.604756	12.740932	72.082999
568	1	62.252235	14.158406	74.191094
569	1	64.007604	12.288603	74.181805
570	1	61.510677	11.703505	74.157680
571	1	60.460350	10.738360	69.950780
572	1	60.107829	12.155834	72.058875
573	1	61.863198	10.286032	72.049586
574	1	59.366271	9.700933	72.025461
575	1	58.315945	8.735788	67.818561
576	1	57.963424	10.153262	69.926655
577	1	59.718792	8.283460	69.917367
578	1	57.221865	7.698361	69.893242
579	1	56.171539	6.733216	65.686342
580	1	55.819018	8.150690	67.794436
581	1	57.574386	6.280888	67.785148
582	1	55.077459	5.695789	67.761023
583	1	53.674612	6.148118	65.662217
584	1	76.176233	21.921417	80.660126
585	1	75.823712	23.338891	82.768220
586	1	77.579081	21.469088	82.758931
587	1	75.082154	20.883990	82.734806
588	1	74.031827	19.918845	78.527906
589	1	73.679306	21.336319	80.636001
590	1	75.434675	19.466516	80.626712
591	1	72.937748	18.881418	80.602587
592	1	71.887421	17.916273	76.395687
593	1	71.534900	19.333747	78.503782
594	1	73.290269	17.463945	78.494493
595	1	70.793342	16.878846	78.470368
596	1	69.743016	15.913701	74.263468
597	1	69.390495	17.331175	76.371562
598	1	71.145863	15.461373	76.362274
599	1	68.648936	14.876274	76.338149
600	1	67.598610	13.911129	72.131249
601	1	67.246089	15.328603	74.239343
602	1	69.001457	13.458801	74.230055
603	1	66.504530	12.873702	74.205930
604	1	65.454204	11.908557	69.999030
605	1	65.101683	13.326031	72.107124
606	1	66.857051	11.456229	72.097835
607	1	64.360125	10.871130	72.073711
608	1	63.309798	9.905985	67.866811
609	1	62.957277	11.323459	69.974905
610	1	64.712646	9.453657	69.965616
611	1	62.215719	8.868558	69.941492
612	1	61.165392	7.903413	65.734592
613	1	60.812871	9.320887	67.842686
614	1	62.568240	7.451085	67.833397
615	1	60.071313	6.865986	67.809272
616	1	58.668466	7.318315	65.710467
617	1	79.025681	21.089042	78.576156
618	1	78.673160	22.506516	80.684250
619	1	80.428528	20.636714	80.674962
620	1	77.931602	20.051615	80.650837
621	1	76.881275	19.086470	76.443937
622	1	76.528754	20.503944	78.552031
623	1	78.284123	18.634142	78.542743
624	1	75.787196	18.049043	78.518618
625	1	74.736869	17.083898	74.311718
626	1	74.384348	18.501372	76.419812
627	1	76.139717	16.631570	76.410523
628	1	73.642790	16.046471	76.386399
629	1	72.592463	15.081326	72.179499
630	1	72.239942	16.498800	74.287593
631	1	73.995311	14.628998	74.278304
632	1	71.498384	14.043899	74.254179
633	1	70.448058	13.078754	70.047280
634	1	70.095537	14.496228	72.155374
635	1	71.850905	12.626426	72.146085
636	1	69.353978	12.041327	72.121960
637	1	68.303652	11.076182	67.915061
638	1	67.951131	12.493656	70.023155
639	1	69.706499	10.623854	70.013866
640	1	67.209572	10.038755	69.989741
641	1	66.159246	9.073610	65.782842
642	1	65.806725	10.491084	67.890936
643	1	67.562093	8.621282	67.881647
644	1	65.065167	8.036183	67.857522
645	1	63.662319	8.488512	65.758717
646	1	81.875129	20.256667	76.492187
647	1	81.522608	21.674141	78.600281
648	1	83.277976	19.804339	78.590992
649	1	80.781049	19.219240	78.566867
650	1	79.730723	18.254095	74.359968
651	1	79.378202	19.671569	76.468062
652	1	81.133570	17.801767	76.458773
653	1	78.636644	17.216668	76.434648
654	1	77.586317	16.251523	72.227749
655	1	77.233796	17.668997	74.335843
656	1	78.989165	15.799195	74.326554
657	1	76.492238	15.214096	74.302429
658	1	75.441911	14.248952	70.095530
659	1	75.089390	15.666425	72.203624
660	1	76.844759	13.796623	72.194335
661	1	74.347832	13.211524	72.170210
662	1	73.297505	12.246380	67.963310
663	1	72.944984	13.663853	70.071405
664	1	74.700353	11.794051	70.062116
665	1	72.203426	11.208952	70.037991
666	1	71.153100	10.243808	65.831091
667	1	70.800579	11.661281	67.939186
668	1	72.555947	9.791479	67.929897
669	1	70.059020	9.206380	67.905772
670	1	68.656173	9.658709	65.806967
671	1	84.724576	19.424293	74.408218
672	1	84.372055	20.841766	76.516312
673	1	86.127424	18.971964	76.507023
674	1	83.630497	18.386865	76.482898
675	1	82.580171	17.421721	72.275998
676	1	82.227650	18.839194	74.384093
677	1	83.983018	16.969392	74.374804
678	1	81.486091	16.384293	74.350679
679	1	80.435765	15.419149	70.143779
680	1	80.083244	16.836622	72.251874
681	1	81.838612	14.966820	72.242585
682	1	79.341686	14.381721	72.218460
683	1	78.291359	13.416577	68.011560
684	1	77.938838	14.834050	70.119654
685	1	79.694207	12.964248	70.110366
686	1	77.197280	12.379149	70.086241
687	1	75.794432	12.831478	67.987435
688	1	77.549801	10.961676	67.978147
689	1	75.052874	10.376577	67.954022
690	1	73.650026	10.828906	65.855216
691	1	87.574024	18.591918	72.324248
692	1	87.221503	20.009391	74.432342
693	1	88.976872	18.139589	74.423054
694	1	86.479945	17.554490	74.398929
695	1	85.429618	16.589346	70.192029
696	1	85.077097	18.006819	72.300123
697	1	86.832466	16.137017	72.290834
698	1	84.335539	15.551918	72.266710
699	1	83.285213	14.586774	68.059810
700	1	82.932692	16.004247	70.167904
701	1	84.688060	14.134445	70.158615
702	1	82.191133	13.549346	70.134491
703	1	80.788286	14.001675	68.035685
704	1	82.543654	12.131873	68.026396
705	1	80.046728	11.546775	68.002271
706	1	90.423472	17.759543	70.240279
707	1	90.070951	19.177016	72.348373
708	1	91.826320	17.307214	72.339084
709	1	89.329393	16.722116	72.314959
710	1	88.279066	15.756971	68.108060
711	1	87.926545	17.174444	70.216154
712	1	89.681914	15.304642	70.206865
713	1	87.184987	14.719544	70.182740
714	1	85.782139	15.171872	68.083935
715	1	87.537508	13.302070	68.074646
716	1	85.040581	12.716972	68.050521
717	1	93.272920	16.927168	68.156309
718	1	92.920399	18.344641	70.264404
719	1	92.178841	15.889741	70.230990
720	1	90.775993	16.342069	68.132185
721	1	92.531362	14.472267	68.122896
722	1	90.034435	13.887169	68.098771
723	1	66.966600	27.325771	84.846642
724	1	66.614079	28.743245	86.954736
725	1	68.369448	26.873442	86.945447
726	1	65.872521	26.288344	86.921322
727	1	64.822195	25.323199	82.714423
728	1	64.469674	26.740673	84.822517
729	1	66.225042	24.870870	84.813228
730	1	63.728115	24.285772	84.789103
731	1	62.677789	23.320627	80.582204
732	1	62.325268	24.738101	82.690298
733	1	64.080636	22.868298	82.681009
734	1	61.583709	22.283200	82.656884
735	1	60.533383	21.318055	78.449985
736	1	60.180862	22.735529	80.558079
737	1	61.936230	20.865727	80.548790
738	1	59.439304	20.280628	80.524665
739	1	58.388977	19.315483	76.317765
740	1	58.036456	20.732957	78.425860
741	1	59.791825	18.863155	78.416571
742	1	57.294898	18.278056	78.392446
743	1	56.244571	17.312911	74.185546
744	1	55.892050	18.730385	76.293641
745	1	57.647419	16.860583	76.284352
746	1	55.150492	16.275484	76.260227
747	1	54.100166	15.310339	72.053327
748	1	53.747645	16.727813	74.161422
749	1	55.503013	14.858011	74.152133
750	1	53.006086	14.272912	74.128008
751	1	51.955760	13.307767	69.921108
752	1	51.603239	14.725241	72.029202
753	1	53.358607	12.855439	72.019914
754	1	50.861680	12.270340	71.995789
755	1	49.811354	11.305195	67.788889
756	1	49.458833	12.722669	69.896983
757	1	51.214201	10.852867	69.887695
758	1	48.717275	10.267768	69.863570
759	1	47.666948	9.302623	65.656670
760	1	47.314427	10.720097	67.764764
761	1	49.069796	8.850295	67.755475
762	1	46.572869	8.265196	67.731351
763	1	45.522542	7.300051	63.524451
764	1	45.170021	8.717525	65.632545
765	1	46.925390	6.847723	65.623256
766	1	44.428463	6.262624	65.599131
767	1	43.025615	6.714953	63.500326
768	1	69.816048	26.493396	82.762673
769	1	69.463527	27.910870	84.870767
770	1	71.218896	26.041068	84.861478
771	1	68.721969	25.455969	84.837353
772	1	67.671642	24.490824	80.630453
773	1	67.319121	25.908298	82.738548
774	1	69.074490	24.038496	82.729259
775	1	66.577563	23.453397	82.705134
776	1	65.527237	22.488252	78.498234
777	1	65.174716	23.905726	80.606329
778	1	66.930084	22.035924	80.597040
779	1	64.433157	21.450825	80.572915
780	1	63.382831	20.485680	76.366015
781	1	63.030310	21.903154	78.474109
782	1	64.785678	20.033352	78.464821
783	1	62.288751	19.448253	78.440696
784	1	61.238425	18.483108	74.233796
785	1	60.885904	19.900582	76.341890
786	1	62.641272	18.030780	76.332602
787	1	60.144346	17.445681	76.308477
788	1	59.094019	16.480536	72.101577
789	1	58.741498	17.898010	74.209671
790	1	60.496867	16.028208	74.200382
791	1	57.999940	15.443109	74.176258
792	1	56.949613	14.477964	69.969358
793	1	56.597092	15.895438	72.077452
794	1	58.352461	14.025636	72.068163
795	1	55.855534	13.440537	72.044039
796	1	54.805208	12.475392	67.837139
797	1	54.452687	13.892866	69.945233
798	1	56.208055	12.023064	69.935944
799	1	53.711128	11.437965	69.911819
800	1	52.660802	10.472821	65.704920
801	1	52.308281	11.890294	67.813014
802	1	54.063649	10.020492	67.803725
803	1	51.566722	9.435393	67.779600
804	1	50.516396	8.470249	63.572701
805	1	50.163875	9.887722	65.680795
806	1	51.919243	8.017920	65.671506
807	1	49.422317	7.432821	65.647381
808	1	48.019469	7.885150	63.548576
809	1	72.665496	25.661021	80.678703
810	1	72.312975	27.078495	82.786797
811	1	74.068344	25.208693	82.777509
812	1	71.571417	24.623594	82.753384
813	1	70.521090	23.658449	78.546484
814	1	70.168569	25.075923	80.654578
815	1	71.923938	23.206121	80.645289
816	1	69.427011	22.621022	80.621165
817	1	68.376684	21.655877	76.414265
818	1	68.024163	23.073351	78.522359
819	1	69.779532	21.203549	78.513070
820	1	67.282605	20.618450	78.488946
821	1	66.232279	19.653305	74.282046
822	1	65.879758	21.070779	76.390140
823	1	67.635126	19.200977	76.380851
824	1	65.138199	18.615878	76.356726
825	1	64.087873	17.650734	72.149827
826	1	63.735352	19.068207	74.257921
827	1	65.490720	17.198405	74.248632
828	1	62.993793	16.613306	74.224507
829	1	61.943467	15.648162	70.017608
830	1	61.590946	17.065635	72.125702
831	1	63.346314	15.195833	72.116413
832	1	60.849388	14.610734	72.092288
833	1	59.799061	13.645590	67.885389
834	1	59.446540	15.063063	69.993483
835	1	61.201909	13.193261	69.984194
836	1	58.704982	12.608162	69.960069
837	1	57.654655	11.643018	65.753170
838	1	57.302134	13.060491	67.861264
839	1	59.057503	11.190689	67.851975
840	1	56.560576	10.605590	67.827850