Position data
84148	atoms
1	atom types
0.00		100.000000	xlo xhi
0.00		100.000000	ylo yhi
0.00		100.000000	zlo zhi

Atoms

1	1	31.891842	98.529008	25.528733
2	1	31.530589	96.556244	27.127252
3	1	30.802299	96.369843	24.675229
4	1	29.520466	97.905300	26.280484
5	1	30.971263	2.037229	25.535468
6	1	30.610010	0.064465	27.133987
7	1	29.881719	99.878065	24.681965
8	1	28.599887	1.413521	26.287219
9	1	30.050683	5.545451	25.542204
10	1	29.689430	3.572686	27.140722
11	1	28.961140	3.386286	24.688700
12	1	27.679308	4.921743	26.293954
13	1	29.130104	9.053672	25.548939
14	1	28.768851	7.080908	27.147458
15	1	28.040561	6.894507	24.695435
16	1	26.758728	8.429964	26.300690
17	1	28.209525	12.561894	25.555674
18	1	27.848272	10.589129	27.154193
19	1	27.119981	10.402729	24.702171
20	1	25.838149	11.938186	26.307425
21	1	27.288945	16.070115	25.562410
22	1	26.927692	14.097351	27.160928
23	1	26.199402	13.910950	24.708906
24	1	24.917570	15.446407	26.314160
25	1	26.368366	19.578336	25.569145
26	1	26.007113	17.605572	27.167664
27	1	25.278823	17.419171	24.715641
28	1	23.996990	18.954628	26.320896
29	1	25.447787	23.086558	25.575880
30	1	25.086534	21.113793	27.174399
31	1	24.358243	20.927393	24.722377
32	1	23.076411	22.462850	26.327631
33	1	24.527207	26.594779	25.582616
34	1	24.165954	24.622015	27.181134
35	1	23.437664	24.435614	24.729112
36	1	22.155832	25.971071	26.334366
37	1	23.606628	30.103001	25.589351
38	1	23.245375	28.130236	27.187870
39	1	22.517085	27.943836	24.735847
40	1	21.235252	29.479293	26.341102
41	1	22.686049	33.611222	25.596086
42	1	22.324796	31.638458	27.194605
43	1	21.596505	31.452057	24.742583
44	1	20.314673	32.987514	26.347837
45	1	21.765469	37.119443	25.602822
46	1	21.404216	35.146679	27.201340
47	1	20.675926	34.960278	24.749318
48	1	19.394094	36.495735	26.354572
49	1	20.844890	40.627665	25.609557
50	1	20.483637	38.654900	27.208076
51	1	19.755347	38.468500	24.756053
52	1	18.473514	40.003957	26.361308
53	1	19.924311	44.135886	25.616292
54	1	19.563058	42.163122	27.214811
55	1	18.834767	41.976721	24.762789
56	1	33.534928	98.966315	22.324960
57	1	33.173674	96.993551	23.923479
58	1	32.445384	96.807151	21.471456
59	1	31.163552	98.342608	23.076711
60	1	32.614348	2.474537	22.331695
61	1	32.253095	0.501772	23.930214
62	1	31.524805	0.315372	21.478192
63	1	30.242972	1.850829	23.083446
64	1	31.693769	5.982758	22.338431
65	1	31.332516	4.009994	23.936950
66	1	30.604226	3.823593	21.484927
67	1	29.322393	5.359050	23.090181
68	1	30.773190	9.490980	22.345166
69	1	30.411936	7.518215	23.943685
70	1	29.683646	7.331815	21.491662
71	1	28.401814	8.867272	23.096917
72	1	29.852610	12.999201	22.351901
73	1	29.491357	11.026437	23.950420
74	1	28.763067	10.840036	21.498398
75	1	27.481234	12.375493	23.103652
76	1	28.932031	16.507422	22.358637
77	1	28.570778	14.534658	23.957156
78	1	27.842488	14.348258	21.505133
79	1	26.560655	15.883714	23.110387
80	1	28.011452	20.015644	22.365372
81	1	27.650198	18.042879	23.963891
82	1	26.921908	17.856479	21.511868
83	1	25.640076	19.391936	23.117123
84	1	27.090872	23.523865	22.372107
85	1	26.729619	21.551101	23.970626
86	1	26.001329	21.364700	21.518604
87	1	24.719497	22.900157	23.123858
88	1	26.170293	27.032087	22.378843
89	1	25.809040	25.059322	23.977362
90	1	25.080750	24.872922	21.525339
91	1	23.798917	26.408379	23.130593
92	1	25.249714	30.540308	22.385578
93	1	24.888460	28.567544	23.984097
94	1	24.160170	28.381143	21.532075
95	1	22.878338	29.916600	23.137329
96	1	24.329134	34.048529	22.392313
97	1	23.967881	32.075765	23.990832
98	1	23.239591	31.889364	21.538810
99	1	21.957759	33.424821	23.144064
100	1	23.408555	37.556751	22.399049
101	1	23.047302	35.583986	23.997568
102	1	22.319012	35.397586	21.545545
103	1	21.037179	36.933043	23.150799
104	1	22.487976	41.064972	22.405784
105	1	22.126723	39.092208	24.004303
106	1	21.398432	38.905807	21.552281
107	1	20.116600	40.441264	23.157535
108	1	21.567396	44.573194	22.412519
109	1	21.206143	42.600429	24.011038
110	1	20.477853	42.414029	21.559016
111	1	19.196021	43.949486	23.164270
112	1	20.646817	48.081415	22.419255
113	1	20.285564	46.108651	24.017774
114	1	19.557274	45.922250	21.565751
115	1	35.178013	99.403623	19.121187
116	1	34.816760	97.430858	20.719706
117	1	34.088470	97.244458	18.267684
118	1	32.806637	98.779915	19.872938
119	1	34.257434	2.911844	19.127922
120	1	33.896181	0.939080	20.726441
121	1	33.167890	0.752679	18.274419
122	1	31.886058	2.288136	19.879673
123	1	33.336854	6.420066	19.134658
124	1	32.975601	4.447301	20.733177
125	1	32.247311	4.260901	18.281154
126	1	30.965479	5.796358	19.886408
127	1	32.416275	9.928287	19.141393
128	1	32.055022	7.955523	20.739912
129	1	31.326732	7.769122	18.287890
130	1	30.044899	9.304579	19.893144
131	1	31.495696	13.436508	19.148128
132	1	31.134443	11.463744	20.746647
133	1	30.406152	11.277344	18.294625
134	1	29.124320	12.812801	19.899879
135	1	30.575116	16.944730	19.154864
136	1	30.213863	14.971965	20.753383
137	1	29.485573	14.785565	18.301360
138	1	28.203741	16.321022	19.906614
139	1	29.654537	20.452951	19.161599
140	1	29.293284	18.480187	20.760118
141	1	28.564994	18.293786	18.308096
142	1	27.283161	19.829243	19.913350
143	1	28.733958	23.961173	19.168334
144	1	28.372705	21.988408	20.766853
145	1	27.644415	21.802008	18.314831
146	1	26.362582	23.337465	19.920085
147	1	27.813379	27.469394	19.175070
148	1	27.452125	25.496630	20.773589
149	1	26.723835	25.310229	18.321566
150	1	25.442003	26.845686	19.926820
151	1	26.892799	30.977615	19.181805
152	1	26.531546	29.004851	20.780324
153	1	25.803256	28.818451	18.328302
154	1	24.521423	30.353907	19.933556
155	1	25.972220	34.485837	19.188540
156	1	25.610967	32.513072	20.787059
157	1	24.882677	32.326672	18.335037
158	1	23.600844	33.862129	19.940291
159	1	25.051641	37.994058	19.195276
160	1	24.690387	36.021294	20.793795
161	1	23.962097	35.834893	18.341772
162	1	22.680265	37.370350	19.947026
163	1	24.131061	41.502280	19.202011
164	1	23.769808	39.529515	20.800530
165	1	23.041518	39.343115	18.348508
166	1	21.759685	40.878572	19.953762
167	1	23.210482	45.010501	19.208746
168	1	22.849229	43.037737	20.807265
169	1	22.120939	42.851336	18.355243
170	1	20.839106	44.386793	19.960497
171	1	22.289903	48.518722	19.215482
172	1	21.928649	46.545958	20.814001
173	1	21.200359	46.359557	18.361978
174	1	19.918527	47.895014	19.967232
175	1	36.821099	99.840930	15.917414
176	1	36.459846	97.868166	17.515933
177	1	35.731555	97.681765	15.063911
178	1	34.449723	99.217222	16.669165
179	1	35.900519	3.349152	15.924150
180	1	35.539266	1.376387	17.522668
181	1	34.810976	1.189987	15.070646
182	1	33.529144	2.725444	16.675900
183	1	34.979940	6.857373	15.930885
184	1	34.618687	4.884609	17.529404
185	1	33.890397	4.698208	15.077381
186	1	32.608564	6.233665	16.682635
187	1	34.059361	10.365594	15.937620
188	1	33.698108	8.392830	17.536139
189	1	32.969817	8.206430	15.084117
190	1	31.687985	9.741887	16.689371
191	1	33.138781	13.873816	15.944356
192	1	32.777528	11.901051	17.542874
193	1	32.049238	11.714651	15.090852
194	1	30.767406	13.250108	16.696106
195	1	32.218202	17.382037	15.951091
196	1	31.856949	15.409273	17.549610
197	1	31.128659	15.222872	15.097587
198	1	29.846826	16.758329	16.702841
199	1	31.297623	20.890259	15.957826
200	1	30.936370	18.917494	17.556345
201	1	30.208079	18.731094	15.104323
202	1	28.926247	20.266551	16.709577
203	1	30.377043	24.398480	15.964562
204	1	30.015790	22.425716	17.563080
205	1	29.287500	22.239315	15.111058
206	1	28.005668	23.774772	16.716312
207	1	29.456464	27.906701	15.971297
208	1	29.095211	25.933937	17.569816
209	1	28.366921	25.747537	15.117793
210	1	27.085088	27.282994	16.723047
211	1	28.535885	31.414923	15.978032
212	1	28.174632	29.442158	17.576551
213	1	27.446341	29.255758	15.124529
214	1	26.164509	30.791215	16.729783
215	1	27.615305	34.923144	15.984768
216	1	27.254052	32.950380	17.583286
217	1	26.525762	32.763979	15.131264
218	1	25.243930	34.299436	16.736518
219	1	26.694726	38.431366	15.991503
220	1	26.333473	36.458601	17.590022
221	1	25.605183	36.272201	15.137999
222	1	24.323350	37.807658	16.743253
223	1	25.774147	41.939587	15.998238
224	1	25.412894	39.966823	17.596757
225	1	24.684603	39.780422	15.144735
226	1	23.402771	41.315879	16.749989
227	1	24.853567	45.447808	16.004974
228	1	24.492314	43.475044	17.603492
229	1	23.764024	43.288644	15.151470
230	1	22.482192	44.824101	16.756724
231	1	23.571735	46.983265	17.610228
232	1	22.843445	46.796865	15.158205
233	1	21.561612	48.332322	16.763459
234	1	38.464184	0.278238	12.713641
235	1	38.102931	98.305473	14.312160
236	1	37.374641	98.119073	11.860138
237	1	36.092808	99.654530	13.465392
238	1	37.543605	3.786459	12.720377
239	1	37.182352	1.813695	14.318895
240	1	36.454062	1.627294	11.866873
241	1	35.172229	3.162751	13.472127
242	1	36.623026	7.294681	12.727112
243	1	36.261772	5.321916	14.325631
244	1	35.533482	5.135516	11.873608
245	1	34.251650	6.670973	13.478862
246	1	35.702446	10.802902	12.733847
247	1	35.341193	8.830137	14.332366
248	1	34.612903	8.643737	11.880344
249	1	33.331071	10.179194	13.485598
250	1	34.781867	14.311123	12.740583
251	1	34.420614	12.338359	14.339101
252	1	33.692324	12.151958	11.887079
253	1	32.410491	13.687415	13.492333
254	1	33.861288	17.819345	12.747318
255	1	33.500035	15.846580	14.345837
256	1	32.771744	15.660180	11.893814
257	1	31.489912	17.195637	13.499068
258	1	32.940708	21.327566	12.754053
259	1	32.579455	19.354802	14.352572
260	1	31.851165	19.168401	11.900550
261	1	30.569333	20.703858	13.505804
262	1	32.020129	24.835787	12.760789
263	1	31.658876	22.863023	14.359307
264	1	30.930586	22.676623	11.907285
265	1	29.648753	24.212080	13.512539
266	1	31.099550	28.344009	12.767524
267	1	30.738297	26.371244	14.366043
268	1	30.010006	26.184844	11.914020
269	1	28.728174	27.720301	13.519274
270	1	30.178970	31.852230	12.774259
271	1	29.817717	29.879466	14.372778
272	1	29.089427	29.693065	11.920756
273	1	27.807595	31.228522	13.526010
274	1	29.258391	35.360452	12.780995
275	1	28.897138	33.387687	14.379513
276	1	28.168848	33.201287	11.927491
277	1	26.887015	34.736744	13.532745
278	1	28.337812	38.868673	12.787730
279	1	27.976559	36.895909	14.386249
280	1	27.248268	36.709508	11.934226
281	1	25.966436	38.244965	13.539480
282	1	27.417232	42.376894	12.794465
283	1	27.055979	40.404130	14.392984
284	1	26.327689	40.217730	11.940962
285	1	25.045857	41.753187	13.546216
286	1	26.496653	45.885116	12.801201
287	1	26.135400	43.912351	14.399719
288	1	25.407110	43.725951	11.947697
289	1	24.125277	45.261408	13.552951
290	1	25.214821	47.420573	14.406455
291	1	24.486530	47.234172	11.954432
292	1	40.107270	0.715545	9.509868
293	1	39.746017	98.742781	11.108387
294	1	39.017727	98.556380	8.656365
295	1	37.735894	0.091837	10.261619
296	1	39.186691	4.223767	9.516604
297	1	38.825437	2.251002	11.115122
298	1	38.097147	2.064602	8.663100
299	1	36.815315	3.600059	10.268354
300	1	38.266111	7.731988	9.523339
301	1	37.904858	5.759224	11.121858
302	1	37.176568	5.572823	8.669835
303	1	35.894735	7.108280	10.275090
304	1	37.345532	11.240209	9.530074
305	1	36.984279	9.267445	11.128593
306	1	36.255989	9.081044	8.676571
307	1	34.974156	10.616501	10.281825
308	1	36.424953	14.748431	9.536810
309	1	36.063699	12.775666	11.135328
310	1	35.335409	12.589266	8.683306
311	1	34.053577	14.124723	10.288560
312	1	35.504373	18.256652	9.543545
313	1	35.143120	16.283888	11.142064
314	1	34.414830	16.097487	8.690041
315	1	33.132997	17.632944	10.295296
316	1	34.583794	21.764874	9.550280
317	1	34.222541	19.792109	11.148799
318	1	33.494251	19.605709	8.696777
319	1	32.212418	21.141166	10.302031
320	1	33.663215	25.273095	9.557016
321	1	33.301961	23.300330	11.155534
322	1	32.573671	23.113930	8.703512
323	1	31.291839	24.649387	10.308766
324	1	32.742635	28.781316	9.563751
325	1	32.381382	26.808552	11.162270
326	1	31.653092	26.622151	8.710247
327	1	30.371259	28.157608	10.315502
328	1	31.822056	32.289538	9.570486
329	1	31.460803	30.316773	11.169005
330	1	30.732513	30.130373	8.716983
331	1	29.450680	31.665830	10.322237
332	1	30.901477	35.797759	9.577222
333	1	30.540223	33.824995	11.175740
334	1	29.811933	33.638594	8.723718
335	1	28.530101	35.174051	10.328972
336	1	29.980897	39.305980	9.583957
337	1	29.619644	37.333216	11.182476
338	1	28.891354	37.146816	8.730453
339	1	27.609521	38.682273	10.335708
340	1	29.060318	42.814202	9.590692
341	1	28.699065	40.841437	11.189211
342	1	27.970775	40.655037	8.737189
343	1	26.688942	42.190494	10.342443
344	1	28.139739	46.322423	9.597428
345	1	27.778485	44.349659	11.195946
346	1	27.050195	44.163258	8.743924
347	1	25.768363	45.698715	10.349178
348	1	26.857906	47.857880	11.202682
349	1	26.129616	47.671480	8.750659
350	1	41.750355	1.152853	6.306095
351	1	41.389102	99.180088	7.904614
352	1	40.660812	98.993688	5.452592
353	1	39.378980	0.529145	7.057846
354	1	40.829776	4.661074	6.312831
355	1	40.468523	2.688310	7.911350
356	1	39.740233	2.501909	5.459327
357	1	38.458400	4.037366	7.064581
358	1	39.909197	8.169295	6.319566
359	1	39.547944	6.196531	7.918085
360	1	38.819653	6.010131	5.466062
361	1	37.537821	7.545587	7.071317
362	1	38.988617	11.677517	6.326301
363	1	38.627364	9.704752	7.924820
364	1	37.899074	9.518352	5.472798
365	1	36.617242	11.053809	7.078052
366	1	38.068038	15.185738	6.333037
367	1	37.706785	13.212974	7.931556
368	1	36.978495	13.026573	5.479533
369	1	35.696662	14.562030	7.084787
370	1	37.147459	18.693960	6.339772
371	1	36.786206	16.721195	7.938291
372	1	36.057915	16.534795	5.486268
373	1	34.776083	18.070252	7.091523
374	1	36.226879	22.202181	6.346507
375	1	35.865626	20.229417	7.945026
376	1	35.137336	20.043016	5.493004
377	1	33.855504	21.578473	7.098258
378	1	35.306300	25.710402	6.353243
379	1	34.945047	23.737638	7.951762
380	1	34.216757	23.551237	5.499739
381	1	32.934924	25.086694	7.104993
382	1	34.385721	29.218624	6.359978
383	1	34.024468	27.245859	7.958497
384	1	33.296177	27.059459	5.506474
385	1	32.014345	28.594916	7.111729
386	1	33.465141	32.726845	6.366713
387	1	33.103888	30.754081	7.965232
388	1	32.375598	30.567680	5.513210
389	1	31.093766	32.103137	7.118464
390	1	32.544562	36.235067	6.373449
391	1	32.183309	34.262302	7.971968
392	1	31.455019	34.075902	5.519945
393	1	30.173186	35.611359	7.125199
394	1	31.623983	39.743288	6.380184
395	1	31.262730	37.770523	7.978703
396	1	30.534439	37.584123	5.526680
397	1	29.252607	39.119580	7.131935
398	1	30.703403	43.251509	6.386919
399	1	30.342150	41.278745	7.985438
400	1	29.613860	41.092344	5.533416
401	1	28.332028	42.627801	7.138670
402	1	29.782824	46.759731	6.393655
403	1	29.421571	44.786966	7.992174
404	1	28.693281	44.600566	5.540151
405	1	27.411448	46.136023	7.145405
406	1	28.500992	48.295188	7.998909
407	1	27.772701	48.108787	5.546886
408	1	43.393441	1.590160	3.102322
409	1	43.032188	99.617396	4.700841
410	1	42.303898	99.430995	2.248819
411	1	41.022065	0.966452	3.854073
412	1	42.472862	5.098381	3.109058
413	1	42.111609	3.125617	4.707577
414	1	41.383318	2.939217	2.255554
415	1	40.101486	4.474674	3.860808
416	1	41.552282	8.606603	3.115793
417	1	41.191029	6.633838	4.714312
418	1	40.462739	6.447438	2.262290
419	1	39.180907	7.982895	3.867544
420	1	40.631703	12.114824	3.122528
421	1	40.270450	10.142060	4.721047
422	1	39.542160	9.955659	2.269025
423	1	38.260327	11.491116	3.874279
424	1	39.711124	15.623046	3.129264
425	1	39.349871	13.650281	4.727783
426	1	38.621580	13.463881	2.275760
427	1	37.339748	14.999338	3.881014
428	1	38.790544	19.131267	3.135999
429	1	38.429291	17.158503	4.734518
430	1	37.701001	16.972102	2.282496
431	1	36.419169	18.507559	3.887750
432	1	37.869965	22.639488	3.142734
433	1	37.508712	20.666724	4.741253
434	1	36.780422	20.480324	2.289231
435	1	35.498589	22.015780	3.894485
436	1	36.949386	26.147710	3.149470
437	1	36.588133	24.174945	4.747989
438	1	35.859842	23.988545	2.295966
439	1	34.578010	25.524002	3.901220
440	1	36.028806	29.655931	3.156205
441	1	35.667553	27.683167	4.754724
442	1	34.939263	27.496766	2.302702
443	1	33.657431	29.032223	3.907956
444	1	35.108227	33.164153	3.162940
445	1	34.746974	31.191388	4.761459
446	1	34.018684	31.004988	2.309437
447	1	32.736851	32.540445	3.914691
448	1	34.187648	36.672374	3.169676
449	1	33.826395	34.699610	4.768195
450	1	33.098104	34.513209	2.316172
451	1	31.816272	36.048666	3.921426
452	1	33.267068	40.180595	3.176411
453	1	32.905815	38.207831	4.774930
454	1	32.177525	38.021430	2.322908
455	1	30.895693	39.556887	3.928162
456	1	32.346489	43.688817	3.183146
457	1	31.985236	41.716052	4.781665
458	1	31.256946	41.529652	2.329643
459	1	29.975113	43.065109	3.934897
460	1	31.425910	47.197038	3.189882
461	1	31.064657	45.224274	4.788401
462	1	30.336366	45.037873	2.336378
463	1	29.054534	46.573330	3.941632
464	1	29.415787	48.546095	2.343114
465	1	45.036527	2.027467	99.898550
466	1	44.675273	0.054703	1.497068
467	1	43.946983	99.868303	99.045046
468	1	42.665151	1.403760	0.650300
469	1	44.115947	5.535689	99.905285
470	1	43.754694	3.562924	1.503804
471	1	43.026404	3.376524	99.051781
472	1	41.744571	4.911981	0.657035
473	1	43.195368	9.043910	99.912020
474	1	42.834115	7.071146	1.510539
475	1	42.105825	6.884745	99.058517
476	1	40.823992	8.420202	0.663771
477	1	42.274789	12.552132	99.918756
478	1	41.913535	10.579367	1.517274
479	1	41.185245	10.392967	99.065252
480	1	39.903413	11.928424	0.670506
481	1	41.354209	16.060353	99.925491
482	1	40.992956	14.087589	1.524010
483	1	40.264666	13.901188	99.071987
484	1	38.982833	15.436645	0.677241
485	1	40.433630	19.568574	99.932226
486	1	40.072377	17.595810	1.530745
487	1	39.344087	17.409410	99.078723
488	1	38.062254	18.944867	0.683977
489	1	39.513051	23.076796	99.938962
490	1	39.151797	21.104031	1.537480
491	1	38.423507	20.917631	99.085458
492	1	37.141675	22.453088	0.690712
493	1	38.592471	26.585017	99.945697
494	1	38.231218	24.612253	1.544216
495	1	37.502928	24.425852	99.092193
496	1	36.221095	25.961309	0.697447
497	1	37.671892	30.093239	99.952432
498	1	37.310639	28.120474	1.550951
499	1	36.582349	27.934074	99.098929
500	1	35.300516	29.469531	0.704183
501	1	36.751313	33.601460	99.959168
502	1	36.390059	31.628696	1.557686
503	1	35.661769	31.442295	99.105664
504	1	34.379937	32.977752	0.710918
505	1	35.830733	37.109681	99.965903
506	1	35.469480	35.136917	1.564422
507	1	34.741190	34.950517	99.112399
508	1	33.459357	36.485973	0.717653
509	1	34.910154	40.617903	99.972638
510	1	34.548901	38.645138	1.571157
511	1	33.820611	38.458738	99.119135
512	1	32.538778	39.994195	0.724389
513	1	33.989575	44.126124	99.979374
514	1	33.628321	42.153360	1.577892
515	1	32.900031	41.966959	99.125870
516	1	31.618199	43.502416	0.731124
517	1	32.707742	45.661581	1.584628
518	1	31.979452	45.475181	99.132605
519	1	30.697619	47.010638	0.737859
520	1	46.679612	2.464775	96.694777
521	1	46.318359	0.492010	98.293295
522	1	45.590069	0.305610	95.841273
523	1	44.308236	1.841067	97.446527
524	1	45.759033	5.972996	96.701512
525	1	45.397780	4.000232	98.300031
526	1	44.669489	3.813831	95.848008
527	1	43.387657	5.349288	97.453262
528	1	44.838453	9.481218	96.708247
529	1	44.477200	7.508453	98.306766
530	1	43.748910	7.322053	95.854744
531	1	42.467078	8.857510	97.459998
532	1	43.917874	12.989439	96.714983
533	1	43.556621	11.016675	98.313501
534	1	42.828331	10.830274	95.861479
535	1	41.546498	12.365731	97.466733
536	1	42.997295	16.497660	96.721718
537	1	42.636042	14.524896	98.320237
538	1	41.907751	14.338496	95.868214
539	1	40.625919	15.873953	97.473468
540	1	42.076715	20.005882	96.728453
541	1	41.715462	18.033117	98.326972
542	1	40.987172	17.846717	95.874950
543	1	39.705340	19.382174	97.480204
544	1	41.156136	23.514103	96.735189
545	1	40.794883	21.541339	98.333707
546	1	40.066593	21.354938	95.881685
547	1	38.784760	22.890395	97.486939
548	1	40.235557	27.022325	96.741924
549	1	39.874304	25.049560	98.340443
550	1	39.146013	24.863160	95.888420
551	1	37.864181	26.398617	97.493674
552	1	39.314977	30.530546	96.748659
553	1	38.953724	28.557782	98.347178
554	1	38.225434	28.371381	95.895156
555	1	36.943602	29.906838	97.500410
556	1	38.394398	34.038767	96.755395
557	1	38.033145	32.066003	98.353913
558	1	37.304855	31.879603	95.901891
559	1	36.023022	33.415060	97.507145
560	1	37.473819	37.546989	96.762130
561	1	37.112566	35.574224	98.360649
562	1	36.384275	35.387824	95.908626
563	1	35.102443	36.923281	97.513880
564	1	36.191986	39.082446	98.367384
565	1	35.463696	38.896045	95.915362
566	1	34.181864	40.431502	97.520616
567	1	35.271407	42.590667	98.374119
568	1	48.322698	2.902082	93.491004
569	1	47.961445	0.929318	95.089522
570	1	47.233154	0.742917	92.637500
571	1	45.951322	2.278374	94.242754
572	1	47.402118	6.410304	93.497739
573	1	47.040865	4.437539	95.096258
574	1	46.312575	4.251139	92.644235
575	1	45.030743	5.786596	94.249490
576	1	46.481539	9.918525	93.504474
577	1	46.120286	7.945761	95.102993
578	1	45.391996	7.759360	92.650971
579	1	44.110163	9.294817	94.256225
580	1	45.560960	13.426747	93.511210
581	1	45.199707	11.453982	95.109728
582	1	44.471416	11.267582	92.657706
583	1	43.189584	12.803039	94.262960
584	1	44.640380	16.934968	93.517945
585	1	44.279127	14.962203	95.116464
586	1	43.550837	14.775803	92.664441
587	1	42.269005	16.311260	94.269696
588	1	43.719801	20.443189	93.524680
589	1	43.358548	18.470425	95.123199
590	1	42.630258	18.284024	92.671177
591	1	41.348425	19.819481	94.276431
592	1	42.799222	23.951411	93.531416
593	1	42.437969	21.978646	95.129934
594	1	41.709678	21.792246	92.677912
595	1	40.427846	23.327703	94.283166
596	1	41.878642	27.459632	93.538151
597	1	41.517389	25.486868	95.136670
598	1	40.789099	25.300467	92.684647
599	1	39.507267	26.835924	94.289902
600	1	40.958063	30.967853	93.544886
601	1	40.596810	28.995089	95.143405
602	1	39.868520	28.808689	92.691383
603	1	38.586687	30.344146	94.296637
604	1	39.676231	32.503310	95.150140
605	1	38.947940	32.316910	92.698118
606	1	37.666108	33.852367	94.303372
607	1	38.755651	36.011532	95.156876
608	1	49.965783	3.339390	90.287231
609	1	49.604530	1.366625	91.885749
610	1	48.876240	1.180225	89.433727
611	1	47.594407	2.715682	91.038981
612	1	49.045204	6.847611	90.293966
613	1	48.683951	4.874847	91.892485
614	1	47.955661	4.688446	89.440462
615	1	46.673828	6.223903	91.045717
616	1	48.124625	10.355833	90.300701
617	1	47.763371	8.383068	91.899220
618	1	47.035081	8.196668	89.447198
619	1	45.753249	9.732125	91.052452
620	1	47.204045	13.864054	90.307437
621	1	46.842792	11.891290	91.905955
622	1	46.114502	11.704889	89.453933
623	1	44.832669	13.240346	91.059187
624	1	46.283466	17.372275	90.314172
625	1	45.922213	15.399511	91.912691
626	1	45.193923	15.213110	89.460668
627	1	43.912090	16.748567	91.065923
628	1	45.362887	20.880497	90.320907
629	1	45.001633	18.907732	91.919426
630	1	44.273343	18.721332	89.467404
631	1	42.991511	20.256789	91.072658
632	1	44.442307	24.388718	90.327643
633	1	44.081054	22.415954	91.926162
634	1	43.352764	22.229553	89.474139
635	1	42.070931	23.765010	91.079393
636	1	43.160475	25.924175	91.932897
637	1	42.432185	25.737775	89.480874
638	1	41.150352	27.273232	91.086129
639	1	42.239895	29.432396	91.939632
640	1	51.608869	3.776697	87.083458
641	1	51.247616	1.803933	88.681977
642	1	50.519325	1.617532	86.229954
643	1	49.237493	3.152989	87.835208
644	1	50.688289	7.284919	87.090193
645	1	50.327036	5.312154	88.688712
646	1	49.598746	5.125754	86.236690
647	1	48.316914	6.661211	87.841944
648	1	49.767710	10.793140	87.096928
649	1	49.406457	8.820376	88.695447
650	1	48.678167	8.633975	86.243425
651	1	47.396334	10.169432	87.848679
652	1	48.847131	14.301361	87.103664
653	1	48.485878	12.328597	88.702183
654	1	47.757587	12.142196	86.250160
655	1	46.475755	13.677653	87.855414
656	1	47.926551	17.809583	87.110399
657	1	47.565298	15.836818	88.708918
658	1	46.837008	15.650418	86.256896
659	1	45.555176	17.185875	87.862150
660	1	46.644719	19.345040	88.715653
661	1	45.916429	19.158639	86.263631
662	1	44.634596	20.694096	87.868885
663	1	45.724140	22.853261	88.722389
664	1	52.890701	2.241240	85.478204
665	1	50.880579	3.590297	84.631435
666	1	51.970122	5.749462	85.484939
667	1	49.959999	7.098518	84.638171
668	1	51.049543	9.257683	85.491674
669	1	49.039420	10.606740	84.644906
670	1	50.128963	12.765904	85.498410
671	1	48.118841	14.114961	84.651641
672	1	49.208384	16.274126	85.505145
673	1	34.991508	99.339116	27.229005
674	1	34.630255	97.366352	28.827524
675	1	33.901965	97.179951	26.375501
676	1	32.620132	98.715408	27.980755
677	1	34.070929	2.847338	27.235740
678	1	33.709676	0.874573	28.834259
679	1	32.981385	0.688173	26.382237
680	1	31.699553	2.223630	27.987491
681	1	33.150349	6.355559	27.242476
682	1	32.789096	4.382795	28.840994
683	1	32.060806	4.196394	26.388972
684	1	30.778974	5.731851	27.994226
685	1	32.229770	9.863781	27.249211
686	1	31.868517	7.891016	28.847730
687	1	31.140227	7.704616	26.395707
688	1	29.858394	9.240073	28.000961
689	1	31.309191	13.372002	27.255946
690	1	30.947938	11.399238	28.854465
691	1	30.219647	11.212837	26.402443
692	1	28.937815	12.748294	28.007697
693	1	30.388611	16.880223	27.262682
694	1	30.027358	14.907459	28.861200
695	1	29.299068	14.721058	26.409178
696	1	28.017236	16.256515	28.014432
697	1	29.468032	20.388445	27.269417
698	1	29.106779	18.415680	28.867936
699	1	28.378489	18.229280	26.415913
700	1	27.096656	19.764737	28.021167
701	1	28.547453	23.896666	27.276152
702	1	28.186200	21.923902	28.874671
703	1	27.457909	21.737501	26.422649
704	1	26.176077	23.272958	28.027903
705	1	27.626873	27.404887	27.282888
706	1	27.265620	25.432123	28.881406
707	1	26.537330	25.245723	26.429384
708	1	25.255498	26.781180	28.034638
709	1	26.706294	30.913109	27.289623
710	1	26.345041	28.940344	28.888142
711	1	25.616751	28.753944	26.436119
712	1	24.334918	30.289401	28.041373
713	1	25.785715	34.421330	27.296358
714	1	25.424462	32.448566	28.894877
715	1	24.696171	32.262165	26.442855
716	1	23.414339	33.797622	28.048109
717	1	24.865135	37.929552	27.303094
718	1	24.503882	35.956787	28.901612
719	1	23.775592	35.770387	26.449590
720	1	22.493760	37.305844	28.054844
721	1	23.944556	41.437773	27.309829
722	1	23.583303	39.465009	28.908348
723	1	22.855013	39.278608	26.456325
724	1	21.573180	40.814065	28.061579
725	1	23.023977	44.945994	27.316564
726	1	22.662724	42.973230	28.915083
727	1	21.934433	42.786830	26.463061
728	1	20.652601	44.322287	28.068315
729	1	22.103397	48.454216	27.323300
730	1	21.742144	46.481451	28.921818
731	1	21.013854	46.295051	26.469796
732	1	36.634594	99.776424	24.025232
733	1	36.273340	97.803659	25.623751
734	1	35.545050	97.617259	23.171728
735	1	34.263218	99.152716	24.776982
736	1	35.714014	3.284645	24.031967
737	1	35.352761	1.311881	25.630486
738	1	34.624471	1.125480	23.178464
739	1	33.342638	2.660937	24.783718
740	1	34.793435	6.792867	24.038703
741	1	34.432182	4.820102	25.637221
742	1	33.703892	4.633702	23.185199
743	1	32.422059	6.169159	24.790453
744	1	33.872856	10.301088	24.045438
745	1	33.511602	8.328324	25.643957
746	1	32.783312	8.141923	23.191934
747	1	31.501480	9.677380	24.797188
748	1	32.952276	13.809309	24.052173
749	1	32.591023	11.836545	25.650692
750	1	31.862733	11.650144	23.198670
751	1	30.580900	13.185601	24.803924
752	1	32.031697	17.317531	24.058909
753	1	31.670444	15.344766	25.657427
754	1	30.942154	15.158366	23.205405
755	1	29.660321	16.693823	24.810659
756	1	31.111118	20.825752	24.065644
757	1	30.749864	18.852988	25.664163
758	1	30.021574	18.666587	23.212140
759	1	28.739742	20.202044	24.817394
760	1	30.190538	24.333974	24.072379
761	1	29.829285	22.361209	25.670898
762	1	29.100995	22.174809	23.218876
763	1	27.819162	23.710266	24.824130
764	1	29.269959	27.842195	24.079115
765	1	28.908706	25.869431	25.677633
766	1	28.180416	25.683030	23.225611
767	1	26.898583	27.218487	24.830865
768	1	28.349380	31.350416	24.085850
769	1	27.988126	29.377652	25.684369
770	1	27.259836	29.191251	23.232346
771	1	25.978004	30.726708	24.837600
772	1	27.428800	34.858638	24.092585
773	1	27.067547	32.885873	25.691104
774	1	26.339257	32.699473	23.239082
775	1	25.057424	34.234930	24.844336
776	1	26.508221	38.366859	24.099321
777	1	26.146968	36.394095	25.697839
778	1	25.418678	36.207694	23.245817
779	1	24.136845	37.743151	24.851071
780	1	25.587642	41.875080	24.106056
781	1	25.226388	39.902316	25.704575
782	1	24.498098	39.715916	23.252552
783	1	23.216266	41.251373	24.857806
784	1	24.667062	45.383302	24.112791
785	1	24.305809	43.410537	25.711310
786	1	23.577519	43.224137	23.259288
787	1	22.295687	44.759594	24.864542
788	1	23.385230	46.918759	25.718045
789	1	22.656940	46.732358	23.266023
790	1	21.375107	48.267815	24.871277
791	1	38.277679	0.213731	20.821459
792	1	37.916426	98.240967	22.419978
793	1	37.188136	98.054566	19.967955
794	1	35.906303	99.590023	21.573210
795	1	37.357100	3.721953	20.828194
796	1	36.995847	1.749188	22.426713
797	1	36.267556	1.562788	19.974691
798	1	34.985724	3.098245	21.579945
799	1	36.436520	7.230174	20.834930
800	1	36.075267	5.257410	22.433448
801	1	35.346977	5.071009	19.981426
802	1	34.065145	6.606466	21.586680
803	1	35.515941	10.738395	20.841665
804	1	35.154688	8.765631	22.440184
805	1	34.426398	8.579231	19.988161
806	1	33.144565	10.114688	21.593416
807	1	34.595362	14.246617	20.848400
808	1	34.234109	12.273852	22.446919
809	1	33.505818	12.087452	19.994897
810	1	32.223986	13.622909	21.600151
811	1	33.674782	17.754838	20.855136
812	1	33.313529	15.782074	22.453654
813	1	32.585239	15.595673	20.001632
814	1	31.303407	17.131130	21.606886
815	1	32.754203	21.263060	20.861871
816	1	32.392950	19.290295	22.460390
817	1	31.664660	19.103895	20.008367
818	1	30.382827	20.639352	21.613622
819	1	31.833624	24.771281	20.868606
820	1	31.472371	22.798517	22.467125
821	1	30.744080	22.612116	20.015103
822	1	29.462248	24.147573	21.620357
823	1	30.913044	28.279502	20.875342
824	1	30.551791	26.306738	22.473860
825	1	29.823501	26.120337	20.021838
826	1	28.541669	27.655794	21.627092
827	1	29.992465	31.787724	20.882077
828	1	29.631212	29.814959	22.480596
829	1	28.902922	29.628559	20.028573
830	1	27.621089	31.164016	21.633828
831	1	29.071886	35.295945	20.888812
832	1	28.710633	33.323181	22.487331
833	1	27.982343	33.136780	20.035309
834	1	26.700510	34.672237	21.640563
835	1	28.151306	38.804167	20.895548
836	1	27.790053	36.831402	22.494066
837	1	27.061763	36.645002	20.042044
838	1	25.779931	38.180459	21.647298
839	1	27.230727	42.312388	20.902283
840	1	26.869474	40.339624	22.500802
841	1	26.141184	40.153223	20.048779
842	1	24.859351	41.688680	21.654034