Position data Generated by SPaMD
84435	atoms
1	atom types
0.000000		100.000000	xlo xhi
0.000000		100.000000	ylo yhi
0.000000		100.000000	zlo zhi

Atoms

1	1	31.891842	98.529008	25.528733
2	1	31.530589	96.556244	27.127252
3	1	30.802299	96.369843	24.675229
4	1	29.520466	97.905300	26.280484
5	1	30.971263	2.037229	25.535468
6	1	30.610010	0.064465	27.133987
7	1	29.881719	99.878065	24.681965
8	1	28.599887	1.413521	26.287219
9	1	30.050683	5.545451	25.542204
10	1	29.689430	3.572686	27.140722
11	1	28.961140	3.386286	24.688700
12	1	27.679308	4.921743	26.293954
13	1	29.130104	9.053672	25.548939
14	1	28.768851	7.080908	27.147458
15	1	28.040561	6.894507	24.695435
16	1	26.758728	8.429964	26.300690
17	1	28.209525	12.561894	25.555674
18	1	27.848272	10.589129	27.154193
19	1	27.119981	10.402729	24.702171
20	1	25.838149	11.938186	26.307425
21	1	27.288945	16.070115	25.562410
22	1	26.927692	14.097351	27.160928
23	1	26.199402	13.910950	24.708906
24	1	24.917570	15.446407	26.314160
25	1	26.368366	19.578336	25.569145
26	1	26.007113	17.605572	27.167664
27	1	25.278823	17.419171	24.715641
28	1	23.996990	18.954628	26.320896
29	1	25.447787	23.086558	25.575880
30	1	25.086534	21.113793	27.174399
31	1	24.358243	20.927393	24.722377
32	1	23.076411	22.462850	26.327631
33	1	24.527207	26.594779	25.582616
34	1	24.165954	24.622015	27.181134
35	1	23.437664	24.435614	24.729112
36	1	22.155832	25.971071	26.334366
37	1	23.606628	30.103001	25.589351
38	1	23.245375	28.130236	27.187870
39	1	22.517085	27.943836	24.735847
40	1	21.235252	29.479293	26.341102
41	1	22.686049	33.611222	25.596086
42	1	22.324796	31.638458	27.194605
43	1	21.596505	31.452057	24.742583
44	1	20.314673	32.987514	26.347837
45	1	21.765469	37.119443	25.602822
46	1	21.404216	35.146679	27.201340
47	1	20.675926	34.960278	24.749318
48	1	19.394094	36.495735	26.354572
49	1	20.483637	38.654900	27.208076
50	1	33.534928	98.966315	22.324960
51	1	33.173674	96.993551	23.923479
52	1	32.445384	96.807151	21.471456
53	1	31.163552	98.342608	23.076711
54	1	32.614348	2.474537	22.331695
55	1	32.253095	0.501772	23.930214
56	1	31.524805	0.315372	21.478192
57	1	30.242972	1.850829	23.083446
58	1	31.693769	5.982758	22.338431
59	1	31.332516	4.009994	23.936950
60	1	30.604226	3.823593	21.484927
61	1	29.322393	5.359050	23.090181
62	1	30.773190	9.490980	22.345166
63	1	30.411936	7.518215	23.943685
64	1	29.683646	7.331815	21.491662
65	1	28.401814	8.867272	23.096917
66	1	29.852610	12.999201	22.351901
67	1	29.491357	11.026437	23.950420
68	1	28.763067	10.840036	21.498398
69	1	27.481234	12.375493	23.103652
70	1	28.932031	16.507422	22.358637
71	1	28.570778	14.534658	23.957156
72	1	27.842488	14.348258	21.505133
73	1	26.560655	15.883714	23.110387
74	1	28.011452	20.015644	22.365372
75	1	27.650198	18.042879	23.963891
76	1	26.921908	17.856479	21.511868
77	1	25.640076	19.391936	23.117123
78	1	27.090872	23.523865	22.372107
79	1	26.729619	21.551101	23.970626
80	1	26.001329	21.364700	21.518604
81	1	24.719497	22.900157	23.123858
82	1	26.170293	27.032087	22.378843
83	1	25.809040	25.059322	23.977362
84	1	25.080750	24.872922	21.525339
85	1	23.798917	26.408379	23.130593
86	1	25.249714	30.540308	22.385578
87	1	24.888460	28.567544	23.984097
88	1	24.160170	28.381143	21.532075
89	1	22.878338	29.916600	23.137329
90	1	24.329134	34.048529	22.392313
91	1	23.967881	32.075765	23.990832
92	1	23.239591	31.889364	21.538810
93	1	21.957759	33.424821	23.144064
94	1	23.047302	35.583986	23.997568
95	1	35.178013	99.403623	19.121187
96	1	34.816760	97.430858	20.719706
97	1	34.088470	97.244458	18.267684
98	1	32.806637	98.779915	19.872938
99	1	34.257434	2.911844	19.127922
100	1	33.896181	0.939080	20.726441
101	1	33.167890	0.752679	18.274419
102	1	31.886058	2.288136	19.879673
103	1	33.336854	6.420066	19.134658
104	1	32.975601	4.447301	20.733177
105	1	32.247311	4.260901	18.281154
106	1	30.965479	5.796358	19.886408
107	1	32.416275	9.928287	19.141393
108	1	32.055022	7.955523	20.739912
109	1	31.326732	7.769122	18.287890
110	1	30.044899	9.304579	19.893144
111	1	31.495696	13.436508	19.148128
112	1	31.134443	11.463744	20.746647
113	1	30.406152	11.277344	18.294625
114	1	29.124320	12.812801	19.899879
115	1	30.575116	16.944730	19.154864
116	1	30.213863	14.971965	20.753383
117	1	29.485573	14.785565	18.301360
118	1	28.203741	16.321022	19.906614
119	1	29.654537	20.452951	19.161599
120	1	29.293284	18.480187	20.760118
121	1	28.564994	18.293786	18.308096
122	1	27.283161	19.829243	19.913350
123	1	28.733958	23.961173	19.168334
124	1	28.372705	21.988408	20.766853
125	1	27.644415	21.802008	18.314831
126	1	26.362582	23.337465	19.920085
127	1	27.813379	27.469394	19.175070
128	1	27.452125	25.496630	20.773589
129	1	26.723835	25.310229	18.321566
130	1	25.442003	26.845686	19.926820
131	1	26.892799	30.977615	19.181805
132	1	26.531546	29.004851	20.780324
133	1	25.803256	28.818451	18.328302
134	1	24.521423	30.353907	19.933556
135	1	25.610967	32.513072	20.787059
136	1	36.821099	99.840930	15.917414
137	1	36.459846	97.868166	17.515933
138	1	35.731555	97.681765	15.063911
139	1	34.449723	99.217222	16.669165
140	1	35.900519	3.349152	15.924150
141	1	35.539266	1.376387	17.522668
142	1	34.810976	1.189987	15.070646
143	1	33.529144	2.725444	16.675900
144	1	34.979940	6.857373	15.930885
145	1	34.618687	4.884609	17.529404
146	1	33.890397	4.698208	15.077381
147	1	32.608564	6.233665	16.682635
148	1	34.059361	10.365594	15.937620
149	1	33.698108	8.392830	17.536139
150	1	32.969817	8.206430	15.084117
151	1	31.687985	9.741887	16.689371
152	1	33.138781	13.873816	15.944356
153	1	32.777528	11.901051	17.542874
154	1	32.049238	11.714651	15.090852
155	1	30.767406	13.250108	16.696106
156	1	32.218202	17.382037	15.951091
157	1	31.856949	15.409273	17.549610
158	1	31.128659	15.222872	15.097587
159	1	29.846826	16.758329	16.702841
160	1	31.297623	20.890259	15.957826
161	1	30.936370	18.917494	17.556345
162	1	30.208079	18.731094	15.104323
163	1	28.926247	20.266551	16.709577
164	1	30.377043	24.398480	15.964562
165	1	30.015790	22.425716	17.563080
166	1	29.287500	22.239315	15.111058
167	1	28.005668	23.774772	16.716312
168	1	29.095211	25.933937	17.569816
169	1	28.366921	25.747537	15.117793
170	1	27.085088	27.282994	16.723047
171	1	38.464184	0.278238	12.713641
172	1	38.102931	98.305473	14.312160
173	1	37.374641	98.119073	11.860138
174	1	36.092808	99.654530	13.465392
175	1	37.543605	3.786459	12.720377
176	1	37.182352	1.813695	14.318895
177	1	36.454062	1.627294	11.866873
178	1	35.172229	3.162751	13.472127
179	1	36.623026	7.294681	12.727112
180	1	36.261772	5.321916	14.325631
181	1	35.533482	5.135516	11.873608
182	1	34.251650	6.670973	13.478862
183	1	35.702446	10.802902	12.733847
184	1	35.341193	8.830137	14.332366
185	1	34.612903	8.643737	11.880344
186	1	33.331071	10.179194	13.485598
187	1	34.781867	14.311123	12.740583
188	1	34.420614	12.338359	14.339101
189	1	33.692324	12.151958	11.887079
190	1	32.410491	13.687415	13.492333
191	1	33.861288	17.819345	12.747318
192	1	33.500035	15.846580	14.345837
193	1	32.771744	15.660180	11.893814
194	1	31.489912	17.195637	13.499068
195	1	32.940708	21.327566	12.754053
196	1	32.579455	19.354802	14.352572
197	1	31.851165	19.168401	11.900550
198	1	30.569333	20.703858	13.505804
199	1	31.658876	22.863023	14.359307
200	1	30.930586	22.676623	11.907285
201	1	29.648753	24.212080	13.512539
202	1	40.107270	0.715545	9.509868
203	1	39.746017	98.742781	11.108387
204	1	39.017727	98.556380	8.656365
205	1	37.735894	0.091837	10.261619
206	1	39.186691	4.223767	9.516604
207	1	38.825437	2.251002	11.115122
208	1	38.097147	2.064602	8.663100
209	1	36.815315	3.600059	10.268354
210	1	38.266111	7.731988	9.523339
211	1	37.904858	5.759224	11.121858
212	1	37.176568	5.572823	8.669835
213	1	35.894735	7.108280	10.275090
214	1	37.345532	11.240209	9.530074
215	1	36.984279	9.267445	11.128593
216	1	36.255989	9.081044	8.676571
217	1	34.974156	10.616501	10.281825
218	1	36.424953	14.748431	9.536810
219	1	36.063699	12.775666	11.135328
220	1	35.335409	12.589266	8.683306
221	1	34.053577	14.124723	10.288560
222	1	35.504373	18.256652	9.543545
223	1	35.143120	16.283888	11.142064
224	1	34.414830	16.097487	8.690041
225	1	33.132997	17.632944	10.295296
226	1	34.222541	19.792109	11.148799
227	1	33.494251	19.605709	8.696777
228	1	32.212418	21.141166	10.302031
229	1	41.750355	1.152853	6.306095
230	1	41.389102	99.180088	7.904614
231	1	40.660812	98.993688	5.452592
232	1	39.378980	0.529145	7.057846
233	1	40.829776	4.661074	6.312831
234	1	40.468523	2.688310	7.911350
235	1	39.740233	2.501909	5.459327
236	1	38.458400	4.037366	7.064581
237	1	39.909197	8.169295	6.319566
238	1	39.547944	6.196531	7.918085
239	1	38.819653	6.010131	5.466062
240	1	37.537821	7.545587	7.071317
241	1	38.988617	11.677517	6.326301
242	1	38.627364	9.704752	7.924820
243	1	37.899074	9.518352	5.472798
244	1	36.617242	11.053809	7.078052
245	1	38.068038	15.185738	6.333037
246	1	37.706785	13.212974	7.931556
247	1	36.978495	13.026573	5.479533
248	1	35.696662	14.562030	7.084787
249	1	36.786206	16.721195	7.938291
250	1	43.393441	1.590160	3.102322
251	1	43.032188	99.617396	4.700841
252	1	42.303898	99.430995	2.248819
253	1	41.022065	0.966452	3.854073
254	1	42.472862	5.098381	3.109058
255	1	42.111609	3.125617	4.707577
256	1	41.383318	2.939217	2.255554
257	1	40.101486	4.474674	3.860808
258	1	41.552282	8.606603	3.115793
259	1	41.191029	6.633838	4.714312
260	1	40.462739	6.447438	2.262290
261	1	39.180907	7.982895	3.867544
262	1	40.631703	12.114824	3.122528
263	1	40.270450	10.142060	4.721047
264	1	39.542160	9.955659	2.269025
265	1	38.260327	11.491116	3.874279
266	1	39.349871	13.650281	4.727783
267	1	45.036527	2.027467	99.898550
268	1	44.675273	0.054703	1.497068
269	1	43.946983	99.868303	99.045046
270	1	42.665151	1.403760	0.650300
271	1	44.115947	5.535689	99.905285
272	1	43.754694	3.562924	1.503804
273	1	43.026404	3.376524	99.051781
274	1	41.744571	4.911981	0.657035
275	1	43.195368	9.043910	99.912020
276	1	42.834115	7.071146	1.510539
277	1	42.105825	6.884745	99.058517
278	1	40.823992	8.420202	0.663771
279	1	41.913535	10.579367	1.517274
280	1	46.679612	2.464775	96.694777
281	1	46.318359	0.492010	98.293295
282	1	45.590069	0.305610	95.841273
283	1	44.308236	1.841067	97.446527
284	1	45.397780	4.000232	98.300031
285	1	44.669489	3.813831	95.848008
286	1	43.387657	5.349288	97.453262
287	1	44.477200	7.508453	98.306766
288	1	47.961445	0.929318	95.089522
289	1	47.233154	0.742917	92.637500
290	1	45.951322	2.278374	94.242754
291	1	34.991508	99.339116	27.229005
292	1	34.630255	97.366352	28.827524
293	1	33.901965	97.179951	26.375501
294	1	32.620132	98.715408	27.980755
295	1	34.070929	2.847338	27.235740
296	1	33.709676	0.874573	28.834259
297	1	32.981385	0.688173	26.382237
298	1	31.699553	2.223630	27.987491
299	1	33.150349	6.355559	27.242476
300	1	32.789096	4.382795	28.840994
301	1	32.060806	4.196394	26.388972
302	1	30.778974	5.731851	27.994226
303	1	32.229770	9.863781	27.249211
304	1	31.868517	7.891016	28.847730
305	1	31.140227	7.704616	26.395707
306	1	29.858394	9.240073	28.000961
307	1	31.309191	13.372002	27.255946
308	1	30.947938	11.399238	28.854465
309	1	30.219647	11.212837	26.402443
310	1	28.937815	12.748294	28.007697
311	1	30.388611	16.880223	27.262682
312	1	30.027358	14.907459	28.861200
313	1	29.299068	14.721058	26.409178
314	1	28.017236	16.256515	28.014432
315	1	29.468032	20.388445	27.269417
316	1	29.106779	18.415680	28.867936
317	1	28.378489	18.229280	26.415913
318	1	27.096656	19.764737	28.021167
319	1	28.547453	23.896666	27.276152
320	1	28.186200	21.923902	28.874671
321	1	27.457909	21.737501	26.422649
322	1	26.176077	23.272958	28.027903
323	1	27.626873	27.404887	27.282888
324	1	27.265620	25.432123	28.881406
325	1	26.537330	25.245723	26.429384
326	1	25.255498	26.781180	28.034638
327	1	26.706294	30.913109	27.289623
328	1	26.345041	28.940344	28.888142
329	1	25.616751	28.753944	26.436119
330	1	24.334918	30.289401	28.041373
331	1	25.785715	34.421330	27.296358
332	1	25.424462	32.448566	28.894877
333	1	24.696171	32.262165	26.442855
334	1	23.414339	33.797622	28.048109
335	1	24.865135	37.929552	27.303094
336	1	24.503882	35.956787	28.901612
337	1	23.775592	35.770387	26.449590
338	1	22.493760	37.305844	28.054844
339	1	23.583303	39.465009	28.908348
340	1	36.634594	99.776424	24.025232
341	1	36.273340	97.803659	25.623751
342	1	35.545050	97.617259	23.171728
343	1	34.263218	99.152716	24.776982
344	1	35.714014	3.284645	24.031967
345	1	35.352761	1.311881	25.630486
346	1	34.624471	1.125480	23.178464
347	1	33.342638	2.660937	24.783718
348	1	34.793435	6.792867	24.038703
349	1	34.432182	4.820102	25.637221
350	1	33.703892	4.633702	23.185199
351	1	32.422059	6.169159	24.790453
352	1	33.872856	10.301088	24.045438
353	1	33.511602	8.328324	25.643957
354	1	32.783312	8.141923	23.191934
355	1	31.501480	9.677380	24.797188
356	1	32.952276	13.809309	24.052173
357	1	32.591023	11.836545	25.650692
358	1	31.862733	11.650144	23.198670
359	1	30.580900	13.185601	24.803924
360	1	32.031697	17.317531	24.058909
361	1	31.670444	15.344766	25.657427
362	1	30.942154	15.158366	23.205405
363	1	29.660321	16.693823	24.810659
364	1	31.111118	20.825752	24.065644
365	1	30.749864	18.852988	25.664163
366	1	30.021574	18.666587	23.212140
367	1	28.739742	20.202044	24.817394
368	1	30.190538	24.333974	24.072379
369	1	29.829285	22.361209	25.670898
370	1	29.100995	22.174809	23.218876
371	1	27.819162	23.710266	24.824130
372	1	29.269959	27.842195	24.079115
373	1	28.908706	25.869431	25.677633
374	1	28.180416	25.683030	23.225611
375	1	26.898583	27.218487	24.830865
376	1	28.349380	31.350416	24.085850
377	1	27.988126	29.377652	25.684369
378	1	27.259836	29.191251	23.232346
379	1	25.978004	30.726708	24.837600
380	1	27.428800	34.858638	24.092585
381	1	27.067547	32.885873	25.691104
382	1	26.339257	32.699473	23.239082
383	1	25.057424	34.234930	24.844336
384	1	26.146968	36.394095	25.697839
385	1	38.277679	0.213731	20.821459
386	1	37.916426	98.240967	22.419978
387	1	37.188136	98.054566	19.967955
388	1	35.906303	99.590023	21.573210
389	1	37.357100	3.721953	20.828194
390	1	36.995847	1.749188	22.426713
391	1	36.267556	1.562788	19.974691
392	1	34.985724	3.098245	21.579945
393	1	36.436520	7.230174	20.834930
394	1	36.075267	5.257410	22.433448
395	1	35.346977	5.071009	19.981426
396	1	34.065145	6.606466	21.586680
397	1	35.515941	10.738395	20.841665
398	1	35.154688	8.765631	22.440184
399	1	34.426398	8.579231	19.988161
400	1	33.144565	10.114688	21.593416
401	1	34.595362	14.246617	20.848400
402	1	34.234109	12.273852	22.446919
403	1	33.505818	12.087452	19.994897
404	1	32.223986	13.622909	21.600151
405	1	33.674782	17.754838	20.855136
406	1	33.313529	15.782074	22.453654
407	1	32.585239	15.595673	20.001632
408	1	31.303407	17.131130	21.606886
409	1	32.754203	21.263060	20.861871
410	1	32.392950	19.290295	22.460390
411	1	31.664660	19.103895	20.008367
412	1	30.382827	20.639352	21.613622
413	1	31.833624	24.771281	20.868606
414	1	31.472371	22.798517	22.467125
415	1	30.744080	22.612116	20.015103
416	1	29.462248	24.147573	21.620357
417	1	30.913044	28.279502	20.875342
418	1	30.551791	26.306738	22.473860
419	1	29.823501	26.120337	20.021838
420	1	28.541669	27.655794	21.627092
421	1	29.992465	31.787724	20.882077
422	1	29.631212	29.814959	22.480596
423	1	28.902922	29.628559	20.028573
424	1	27.621089	31.164016	21.633828
425	1	28.710633	33.323181	22.487331
426	1	39.920765	0.651039	17.617686
427	1	39.559512	98.678274	19.216205
428	1	38.831221	98.491874	16.764182
429	1	37.549389	0.027331	18.369437
430	1	39.000185	4.159260	17.624421
431	1	38.638932	2.186496	19.222940
432	1	37.910642	2.000095	16.770918
433	1	36.628810	3.535552	18.376172
434	1	38.079606	7.667481	17.631157
435	1	37.718353	5.694717	19.229675
436	1	36.990063	5.508317	16.777653
437	1	35.708230	7.043774	18.382907
438	1	37.159027	11.175703	17.637892
439	1	36.797774	9.202938	19.236411
440	1	36.069483	9.016538	16.784388
441	1	34.787651	10.551995	18.389643
442	1	36.238447	14.683924	17.644627
443	1	35.877194	12.711160	19.243146
444	1	35.148904	12.524759	16.791124
445	1	33.867072	14.060216	18.396378
446	1	35.317868	18.192146	17.651363
447	1	34.956615	16.219381	19.249882
448	1	34.228325	16.032981	16.797859
449	1	32.946492	17.568438	18.403113
450	1	34.397289	21.700367	17.658098
451	1	34.036036	19.727603	19.256617
452	1	33.307745	19.541202	16.804594
453	1	32.025913	21.076659	18.409849
454	1	33.476709	25.208588	17.664833
455	1	33.115456	23.235824	19.263352
456	1	32.387166	23.049424	16.811330
457	1	31.105334	24.584881	18.416584
458	1	32.194877	26.744045	19.270088
459	1	31.466587	26.557645	16.818065
460	1	30.184754	28.093102	18.423319
461	1	41.563850	1.088346	14.413913
462	1	41.202597	99.115582	16.012432
463	1	40.474307	98.929181	13.560410
464	1	39.192474	0.464638	15.165664
465	1	40.643271	4.596567	14.420648
466	1	40.282018	2.623803	16.019167
467	1	39.553728	2.437403	13.567145
468	1	38.271895	3.972860	15.172399
469	1	39.722692	8.104789	14.427384
470	1	39.361438	6.132024	16.025903
471	1	38.633148	5.945624	13.573880
472	1	37.351316	7.481081	15.179134
473	1	38.802112	11.613010	14.434119
474	1	38.440859	9.640246	16.032638
475	1	37.712569	9.453845	13.580616
476	1	36.430736	10.989302	15.185870
477	1	37.881533	15.121232	14.440854
478	1	37.520280	13.148467	16.039373
479	1	36.791990	12.962067	13.587351
480	1	35.510157	14.497524	15.192605
481	1	36.960954	18.629453	14.447590
482	1	36.599700	16.656689	16.046109
483	1	35.871410	16.470288	13.594086
484	1	34.589578	18.005745	15.199340
485	1	36.040374	22.137674	14.454325
486	1	35.679121	20.164910	16.052844
487	1	34.950831	19.978510	13.600822
488	1	33.668998	21.513967	15.206076
489	1	34.758542	23.673131	16.059579
490	1	34.030252	23.486731	13.607557
491	1	32.748419	25.022188	15.212811
492	1	43.206936	1.525654	11.210140
493	1	42.845683	99.552889	12.808659
494	1	42.117392	99.366489	10.356637
495	1	40.835560	0.901946	11.961891
496	1	42.286356	5.033875	11.216875
497	1	41.925103	3.061111	12.815394
498	1	41.196813	2.874710	10.363372
499	1	39.914981	4.410167	11.968626
500	1	41.365777	8.542096	11.223611
501	1	41.004524	6.569332	12.822130
502	1	40.276234	6.382931	10.370107
503	1	38.994401	7.918388	11.975361
504	1	40.445198	12.050318	11.230346
505	1	40.083945	10.077553	12.828865
506	1	39.355654	9.891153	10.376843
507	1	38.073822	11.426610	11.982097
508	1	39.524618	15.558539	11.237081
509	1	39.163365	13.585775	12.835600
510	1	38.435075	13.399374	10.383578
511	1	37.153243	14.934831	11.988832
512	1	38.604039	19.066760	11.243817
513	1	38.242786	17.093996	12.842336
514	1	37.514496	16.907596	10.390313
515	1	36.232663	18.443053	11.995567
516	1	37.322207	20.602217	12.849071
517	1	36.593917	20.415817	10.397049
518	1	35.312084	21.951274	12.002303
519	1	44.850021	1.962961	8.006367
520	1	44.488768	99.990197	9.604886
521	1	43.760478	99.803796	7.152864
522	1	42.478646	1.339253	8.758118
523	1	43.929442	5.471182	8.013103
524	1	43.568189	3.498418	9.611621
525	1	42.839899	3.312017	7.159599
526	1	41.558066	4.847474	8.764853
527	1	43.008863	8.979404	8.019838
528	1	42.647610	7.006639	9.618357
529	1	41.919319	6.820239	7.166334
530	1	40.637487	8.355696	8.771588
531	1	42.088283	12.487625	8.026573
532	1	41.727030	10.514861	9.625092
533	1	40.998740	10.328460	7.173070
534	1	39.716908	11.863917	8.778324
535	1	41.167704	15.995847	8.033309
536	1	40.806451	14.023082	9.631827
537	1	40.078161	13.836682	7.179805
538	1	38.796328	15.372139	8.785059
539	1	39.885872	17.531304	9.638563
540	1	46.493107	2.400268	4.802594
541	1	46.131854	0.427504	6.401113
542	1	45.403564	0.241104	3.949091
543	1	44.121731	1.776560	5.554345
544	1	45.572528	5.908490	4.809330
545	1	45.211274	3.935725	6.407848
546	1	44.482984	3.749325	3.955826
547	1	43.201152	5.284782	5.561080
548	1	44.651948	9.416711	4.816065
549	1	44.290695	7.443947	6.414584
550	1	43.562405	7.257546	3.962561
551	1	42.280573	8.793003	5.567815
552	1	43.731369	12.924933	4.822800
553	1	43.370116	10.952168	6.421319
554	1	42.641826	10.765768	3.969297
555	1	41.359993	12.301225	5.574551
556	1	42.449536	14.460390	6.428054
557	1	48.136192	2.837576	1.598821
558	1	47.774939	0.864811	3.197340
559	1	47.046649	0.678411	0.745318
560	1	45.764817	2.213868	2.350572
561	1	47.215613	6.345797	1.605557
562	1	46.854360	4.373033	3.204075
563	1	46.126070	4.186632	0.752053
564	1	44.844237	5.722089	2.357307
565	1	46.295034	9.854019	1.612292
566	1	45.933781	7.881254	3.210811
567	1	45.205491	7.694854	0.758788
568	1	43.923658	9.230311	2.364043
569	1	45.013201	11.389476	3.217546
570	1	49.779278	3.274883	98.395048
571	1	49.418025	1.302119	99.993567
572	1	48.689735	1.115718	97.541545
573	1	47.407902	2.651175	99.146799
574	1	48.497446	4.810340	0.000303
575	1	47.769155	4.623940	97.548280
576	1	46.487323	6.159397	99.153534
577	1	47.576866	8.318562	0.007038
578	1	51.061111	1.739426	96.789794
579	1	50.332820	1.553026	94.337772
580	1	49.050988	3.088483	95.943026
581	1	38.091174	0.149225	28.929277
582	1	37.729921	98.176460	30.527795
583	1	37.001631	97.990060	28.075773
584	1	35.719798	99.525517	29.681027
585	1	37.170595	3.657446	28.936012
586	1	36.809341	1.684682	30.534531
587	1	36.081051	1.498281	28.082508
588	1	34.799219	3.033738	29.687763
589	1	36.250015	7.165667	28.942747
590	1	35.888762	5.192903	30.541266
591	1	35.160472	5.006503	28.089244
592	1	33.878640	6.541960	29.694498
593	1	35.329436	10.673889	28.949483
594	1	34.968183	8.701124	30.548001
595	1	34.239893	8.514724	28.095979
596	1	32.958060	10.050181	29.701233
597	1	34.408857	14.182110	28.956218
598	1	34.047604	12.209346	30.554737
599	1	33.319313	12.022945	28.102714
600	1	32.037481	13.558402	29.707969
601	1	33.488277	17.690332	28.962953
602	1	33.127024	15.717567	30.561472
603	1	32.398734	15.531167	28.109450
604	1	31.116902	17.066624	29.714704
605	1	32.567698	21.198553	28.969689
606	1	32.206445	19.225789	30.568207
607	1	31.478155	19.039388	28.116185
608	1	30.196322	20.574845	29.721439
609	1	31.647119	24.706774	28.976424
610	1	31.285866	22.734010	30.574943
611	1	30.557575	22.547610	28.122920
612	1	29.275743	24.083067	29.728175
613	1	30.726539	28.214996	28.983159
614	1	30.365286	26.242231	30.581678
615	1	29.636996	26.055831	28.129656
616	1	28.355164	27.591288	29.734910
617	1	29.805960	31.723217	28.989895
618	1	29.444707	29.750453	30.588413
619	1	28.716417	29.564052	28.136391
620	1	27.434584	31.099509	29.741645
621	1	28.885381	35.231439	28.996630
622	1	28.524128	33.258674	30.595149
623	1	27.795837	33.072274	28.143126
624	1	26.514005	34.607731	29.748381
625	1	27.964801	38.739660	29.003365
626	1	27.603548	36.766896	30.601884
627	1	26.875258	36.580495	28.149862
628	1	25.593426	38.115952	29.755116
629	1	26.682969	40.275117	30.608620
630	1	39.734260	0.586532	25.725504
631	1	39.373006	98.613768	27.324023
632	1	38.644716	98.427367	24.872000
633	1	37.362884	99.962824	26.477254
634	1	38.813680	4.094754	25.732239
635	1	38.452427	2.121989	27.330758
636	1	37.724137	1.935589	24.878735
637	1	36.442304	3.471046	26.483990
638	1	37.893101	7.602975	25.738974
639	1	37.531848	5.630211	27.337493
640	1	36.803558	5.443810	24.885471
641	1	35.521725	6.979267	26.490725
642	1	36.972522	11.111196	25.745710
643	1	36.611268	9.138432	27.344229
644	1	35.882978	8.952031	24.892206
645	1	34.601146	10.487488	26.497460
646	1	36.051942	14.619418	25.752445
647	1	35.690689	12.646653	27.350964
648	1	34.962399	12.460253	24.898941
649	1	33.680566	13.995710	26.504196
650	1	35.131363	18.127639	25.759180
651	1	34.770110	16.154875	27.357699
652	1	34.041820	15.968474	24.905677
653	1	32.759987	17.503931	26.510931
654	1	34.210784	21.635860	25.765916
655	1	33.849530	19.663096	27.364435
656	1	33.121240	19.476696	24.912412
657	1	31.839408	21.012153	26.517666
658	1	33.290204	25.144082	25.772651
659	1	32.928951	23.171317	27.371170
660	1	32.200661	22.984917	24.919147
661	1	30.918828	24.520374	26.524402
662	1	32.369625	28.652303	25.779386
663	1	32.008372	26.679539	27.377905
664	1	31.280082	26.493138	24.925883
665	1	29.998249	28.028595	26.531137
666	1	31.449046	32.160525	25.786122
667	1	31.087792	30.187760	27.384641
668	1	30.359502	30.001360	24.932618
669	1	29.077670	31.536817	26.537872
670	1	30.528466	35.668746	25.792857
671	1	30.167213	33.695982	27.391376
672	1	29.438923	33.509581	24.939354
673	1	28.157090	35.045038	26.544608
674	1	29.246634	37.204203	27.398111
675	1	41.377345	1.023840	22.521731
676	1	41.016092	99.051075	24.120250
677	1	40.287802	98.864675	21.668227
678	1	39.005969	0.400132	23.273481
679	1	40.456766	4.532061	22.528466
680	1	40.095513	2.559297	24.126985
681	1	39.367222	2.372896	21.674963
682	1	38.085390	3.908353	23.280217
683	1	39.536186	8.040282	22.535201
684	1	39.174933	6.067518	24.133720
685	1	38.446643	5.881117	21.681698
686	1	37.164811	7.416574	23.286952
687	1	38.615607	11.548504	22.541937
688	1	38.254354	9.575739	24.140456
689	1	37.526064	9.389339	21.688433
690	1	36.244231	10.924796	23.293687
691	1	37.695028	15.056725	22.548672
692	1	37.333775	13.083961	24.147191
693	1	36.605484	12.897560	21.695169
694	1	35.323652	14.433017	23.300423
695	1	36.774448	18.564947	22.555407
696	1	36.413195	16.592182	24.153926
697	1	35.684905	16.405782	21.701904
698	1	34.403073	17.941239	23.307158
699	1	35.853869	22.073168	22.562143
700	1	35.492616	20.100404	24.160662
701	1	34.764326	19.914003	21.708639
702	1	33.482493	21.449460	23.313893
703	1	34.933290	25.581389	22.568878
704	1	34.572037	23.608625	24.167397
705	1	33.843746	23.422224	21.715375
706	1	32.561914	24.957681	23.320629
707	1	34.012710	29.089611	22.575613
708	1	33.651457	27.116846	24.174132
709	1	32.923167	26.930446	21.722110
710	1	31.641335	28.465903	23.327364
711	1	33.092131	32.597832	22.582349
712	1	32.730878	30.625068	24.180868
713	1	32.002588	30.438667	21.728845
714	1	30.720755	31.974124	23.334099
715	1	31.810299	34.133289	24.187603
716	1	43.020431	1.461147	19.317958
717	1	42.659178	99.488383	20.916477
718	1	41.930887	99.301982	18.464454
719	1	40.649055	0.837439	20.069708
720	1	42.099851	4.969368	19.324693
721	1	41.738598	2.996604	20.923212
722	1	41.010308	2.810204	18.471190
723	1	39.728476	4.345661	20.076444
724	1	41.179272	8.477590	19.331429
725	1	40.818019	6.504825	20.929947
726	1	40.089729	6.318425	18.477925
727	1	38.807896	7.853882	20.083179
728	1	40.258693	11.985811	19.338164
729	1	39.897440	10.013047	20.936683
730	1	39.169149	9.826646	18.484660
731	1	37.887317	11.362103	20.089914
732	1	39.338113	15.494033	19.344899
733	1	38.976860	13.521268	20.943418
734	1	38.248570	13.334868	18.491396
735	1	36.966738	14.870325	20.096650
736	1	38.417534	19.002254	19.351635
737	1	38.056281	17.029490	20.950153
738	1	37.327991	16.843089	18.498131
739	1	36.046158	18.378546	20.103385
740	1	37.496955	22.510475	19.358370
741	1	37.135702	20.537711	20.956889
742	1	36.407411	20.351310	18.504866
743	1	35.125579	21.886767	20.110120
744	1	36.576375	26.018697	19.365105
745	1	36.215122	24.045932	20.963624
746	1	35.486832	23.859532	18.511602
747	1	34.205000	25.394989	20.116856
748	1	35.294543	27.554154	20.970359
749	1	34.566253	27.367753	18.518337
750	1	33.284420	28.903210	20.123591
751	1	44.663516	1.898454	16.114185
752	1	44.302263	99.925690	17.712704
753	1	43.573973	99.739290	15.260681
754	1	42.292140	1.274747	16.865935
755	1	43.742937	5.406676	16.120920
756	1	43.381684	3.433911	17.719439
757	1	42.653394	3.247511	15.267417
758	1	41.371561	4.782968	16.872671
759	1	42.822358	8.914897	16.127656
760	1	42.461104	6.942133	17.726174
761	1	41.732814	6.755732	15.274152
762	1	40.450982	8.291189	16.879406
763	1	41.901778	12.423119	16.134391
764	1	41.540525	10.450354	17.732910
765	1	40.812235	10.263954	15.280887
766	1	39.530402	11.799411	16.886141
767	1	40.981199	15.931340	16.141126
768	1	40.619946	13.958576	17.739645
769	1	39.891656	13.772175	15.287623
770	1	38.609823	15.307632	16.892877
771	1	40.060620	19.439561	16.147862
772	1	39.699366	17.466797	17.746380
773	1	38.971076	17.280397	15.294358
774	1	37.689244	18.815854	16.899612
775	1	39.140040	22.947783	16.154597
776	1	38.778787	20.975018	17.753116
777	1	38.050497	20.788618	15.301093
778	1	36.768664	22.324075	16.906347
779	1	37.858208	24.483240	17.759851
780	1	37.129918	24.296839	15.307829
781	1	35.848085	25.832296	16.913083
782	1	46.306602	2.335762	12.910412
783	1	45.945349	0.362997	14.508931
784	1	45.217058	0.176597	12.056908
785	1	43.935226	1.712054	13.662163
786	1	45.386022	5.843983	12.917147
787	1	45.024769	3.871219	14.515666
788	1	44.296479	3.684818	12.063644
789	1	43.014647	5.220275	13.668898
790	1	44.465443	9.352205	12.923883
791	1	44.104190	7.379440	14.522401
792	1	43.375900	7.193040	12.070379
793	1	42.094067	8.728497	13.675633
794	1	43.544864	12.860426	12.930618
795	1	43.183611	10.887662	14.529137
796	1	42.455320	10.701261	12.077114
797	1	41.173488	12.236718	13.682369
798	1	42.624284	16.368647	12.937353
799	1	42.263031	14.395883	14.535872
800	1	41.534741	14.209483	12.083850
801	1	40.252909	15.744940	13.689104
802	1	41.703705	19.876869	12.944089
803	1	41.342452	17.904104	14.542607
804	1	40.614162	17.717704	12.090585
805	1	39.332329	19.253161	13.695839
806	1	40.421873	21.412326	14.549343
807	1	39.693582	21.225925	12.097320
808	1	38.411750	22.761382	13.702575
809	1	47.949687	2.773069	9.706639
810	1	47.588434	0.800305	11.305158
811	1	46.860144	0.613904	8.853135
812	1	45.578312	2.149361	10.458390
813	1	47.029108	6.281291	9.713374
814	1	46.667855	4.308526	11.311893
815	1	45.939565	4.122126	8.859871
816	1	44.657732	5.657583	10.465125
817	1	46.108529	9.789512	9.720110
818	1	45.747276	7.816748	11.318629
819	1	45.018985	7.630347	8.866606
820	1	43.737153	9.165804	10.471860
821	1	45.187949	13.297733	9.726845
822	1	44.826696	11.324969	11.325364
823	1	44.098406	11.138569	8.873341
824	1	42.816574	12.674026	10.478596
825	1	44.267370	16.805955	9.733580
826	1	43.906117	14.833190	11.332099
827	1	43.177827	14.646790	8.880077
828	1	41.895994	16.182247	10.485331
829	1	42.985538	18.341412	11.338835
830	1	49.592773	3.210377	6.502866
831	1	49.231520	1.237612	8.101385
832	1	48.503230	1.051212	5.649363
833	1	47.221397	2.586669	7.254617
834	1	48.672194	6.718598	6.509601
835	1	48.310940	4.745834	8.108120
836	1	47.582650	4.559433	5.656098
837	1	46.300818	6.094890	7.261352
838	1	47.751614	10.226820	6.516337
839	1	47.390361	8.254055	8.114856
840	1	46.662071	8.067655	5.662833
841	1	45.380238	9.603112	7.268087
842	1	46.831035	13.735041	6.523072
843	1	46.469782	11.762277	8.121591
844	1	45.741492	11.575876	5.669569