ITEM: TIMESTEP
500000
ITEM: NUMBER OF ATOMS
13500
ITEM: BOX BOUNDS pp pp pp
-6.6891085679415241e-01 5.4893910856796865e+01
-6.6891085679415241e-01 5.4893910856796865e+01
-6.6891085679415241e-01 5.4893910856796865e+01
ITEM: ATOMS id type x y z 
8 1 3.20698 0.927363 0.633119 
33 1 1.09256 2.92557 1.08043 
152 1 1.3639 1.26726 3.17819 
185 1 3.00777 3.22739 2.98918 
391 1 -0.196372 10.7342 6.8898 
364 1 -0.536086 8.73586 8.50467 
12 1 6.79823 1.44772 1.05815 
37 1 4.83693 2.97993 1.29606 
156 1 4.83834 1.12903 2.7507 
189 1 6.47851 2.73875 3.00495 
96 1 4.89293 12.0789 -0.386479 
108 1 16.4536 12.538 -0.463453 
307 1 4.82342 -0.679914 8.68041 
160 1 8.23781 0.681084 3.58778 
41 1 8.62889 3.01007 1.28936 
16 1 10.3199 0.898734 1.03508 
45 1 11.814 2.59362 1.09158 
164 1 11.9194 0.836882 2.74323 
193 1 10.2464 2.69173 3.20297 
20 1 13.8315 1.20416 0.932985 
49 1 15.9796 2.77887 1.32239 
168 1 15.7803 1.0002 2.87613 
197 1 14.1273 2.80956 3.37051 
201 1 18.0096 2.97888 3.20749 
177 1 23.2959 -0.428997 4.64711 
7021 1 26.9605 16.1685 2.92354 
89 1 25.1568 6.63985 -0.455728 
24 1 18.0023 1.12897 1.2687 
53 1 19.8949 3.21957 1.4306 
172 1 19.8711 1.16526 2.96284 
205 1 21.5329 3.02557 3.08559 
25 1 21.3387 1.00655 1.04629 
171 1 18.0834 -0.284014 3.29788 
469 1 15.9108 -0.512085 12.5487 
77 1 14.3899 6.51879 -0.261184 
30 1 25.0158 1.39068 1.51659 
57 1 23.5562 3.20568 1.28577 
176 1 23.0164 1.37588 3.17524 
209 1 25.4056 3.32174 3.3642 
73 1 10.3692 6.82832 -0.562828 
453 1 1.10203 -0.631652 11.7985 
6841 1 27.1742 12.4003 -0.413742 
2427 1 23.2462 17.8071 4.84888 
38 1 2.50628 4.96601 1.05661 
63 1 0.545047 6.49807 1.01376 
182 1 1.01756 5.02171 2.88763 
215 1 2.96693 6.69716 3.38029 
68 1 2.73534 8.13193 0.975826 
212 1 1.15631 8.46512 2.89529 
599 1 25.5323 14.3191 10.6582 
134 1 12.3544 15.8278 -0.343265 
42 1 6.44723 4.92622 0.964428 
67 1 4.61046 6.73516 1.44973 
186 1 4.87009 5.05185 3.07083 
219 1 6.51182 7.1055 3.13711 
216 1 4.48027 8.83231 3.13206 
220 1 8.50883 8.41042 3.21664 
190 1 7.9492 5.00446 2.66004 
71 1 8.50464 6.55206 1.11659 
46 1 10.3524 4.74324 1.41568 
75 1 12.1985 6.69703 1.51563 
194 1 12.2831 4.76162 3.18097 
223 1 10.211 6.98894 2.89405 
76 1 10.1379 8.53377 1.09686 
321 1 17.9746 -0.513278 6.52962 
50 1 14.1271 4.81554 1.32634 
79 1 16.0946 6.61625 1.38246 
198 1 16.1575 4.88825 3.15045 
227 1 14.5439 7.0477 3.26948 
80 1 14.146 8.86248 1.3026 
231 1 17.7779 7.12084 3.07452 
54 1 17.7782 4.89836 1.30086 
58 1 21.5967 4.92745 1.75409 
83 1 19.9592 6.90927 1.52092 
202 1 19.6519 5.33252 3.21169 
235 1 21.5892 6.88015 3.19268 
44 1 12.0538 4.96531 -0.500778 
6812 1 26.878 7.00714 1.31963 
60 1 25.3409 5.0634 1.28235 
87 1 23.4275 6.58528 1.40298 
206 1 23.5271 4.76803 3.2234 
239 1 25.2429 6.12712 3.44873 
90 1 24.9802 8.62733 1.13571 
6872 1 26.9154 14.2701 0.931879 
52 1 19.4371 4.97738 -0.525635 
6842 1 26.9234 10.362 1.22286 
93 1 0.921295 9.96958 0.980365 
98 1 2.74487 12.0938 1.02479 
242 1 0.860861 12.2609 2.91409 
245 1 2.7996 10.2572 2.95806 
465 1 12.001 -0.577334 12.1485 
167 1 13.9661 -0.595215 2.95381 
40 1 8.57685 5.0503 -0.432171 
29 1 25.3311 -0.230296 -0.555232 
72 1 6.55268 8.4828 1.26251 
97 1 4.81201 10.354 1.07155 
102 1 6.86823 12.116 1.09456 
246 1 4.81303 12.1797 2.94232 
249 1 6.63484 10.3411 2.93873 
250 1 8.57515 12.2047 3.02863 
101 1 8.30541 10.0688 1.21811 
7201 1 26.7045 1.09201 10.2593 
224 1 12.2957 8.37314 2.96549 
105 1 11.8841 10.2876 1.06545 
106 1 10.2112 12.1801 1.16339 
253 1 10.5169 10.0577 2.8782 
254 1 12.0207 12.0988 3.08089 
2721 1 17.6626 17.7414 10.4754 
228 1 15.9961 9.06445 3.16396 
109 1 15.7967 10.3826 0.9537 
110 1 13.7513 12.094 1.32911 
257 1 13.9275 10.3505 3.43773 
258 1 15.6177 12.2889 2.92179 
114 1 17.8292 12.377 1.53866 
84 1 17.91 8.97746 1.12251 
261 1 17.8987 10.8253 3.39718 
88 1 21.8394 8.86392 1.39937 
232 1 19.6022 9.20446 3.06745 
113 1 19.8738 10.934 1.02336 
118 1 21.618 12.4346 0.897527 
262 1 19.6394 12.875 3.15431 
265 1 21.6086 10.8601 2.89756 
236 1 23.3742 9.005 3.11064 
117 1 23.4375 10.6601 1.46985 
120 1 25.2838 12.1749 1.42198 
266 1 23.4957 12.4196 3.22843 
269 1 25.4775 10.5018 3.05454 
7291 1 27.1374 12.3121 10.3391 
7262 1 27.009 6.98919 12.2995 
2577 1 22.9859 17.8413 8.09107 
317 1 14.2918 -0.345049 6.55752 
123 1 1.39246 14.3089 0.796465 
128 1 2.99501 15.5845 0.942018 
272 1 1.2094 15.8904 2.91779 
275 1 2.68938 13.5632 2.80136 
7292 1 27.026 10.5886 12.5642 
319 1 16.2066 -0.409971 8.44496 
127 1 4.61369 13.7131 1.25225 
132 1 6.64489 16.174 1.197 
276 1 4.83065 16.0443 2.91101 
279 1 6.5943 13.8936 2.57171 
131 1 8.6445 14.0965 1.23178 
169 1 15.717 -0.371678 4.78546 
331 1 -0.62827 2.7358 6.70633 
121 1 -0.632326 14.1538 -0.631609 
280 1 8.5325 15.8898 2.97435 
135 1 12.3546 14.2026 1.43806 
136 1 10.4596 15.9892 1.1755 
283 1 10.4475 13.8793 3.12674 
284 1 11.9126 16.2286 3.17228 
6782 1 27.0784 3.06669 1.12397 
6901 1 27.12 1.31562 2.82407 
35 1 2.81322 3.18917 -0.680286 
19 1 15.8837 -0.374498 1.16823 
116 1 23.4361 12.6018 -0.462165 
139 1 15.7885 13.8467 1.13268 
140 1 14.427 15.9674 1.25065 
287 1 13.9036 14.0761 2.95973 
288 1 15.8157 15.6637 3.03403 
144 1 17.741 16.2193 1.36843 
291 1 17.4705 14.0444 3.15344 
149 1 25.0348 14.4072 -0.44263 
467 1 14.3889 -0.59644 10.4503 
463 1 10.4512 -0.450168 10.2686 
143 1 19.6758 13.9962 1.29191 
148 1 21.6648 16.3857 1.62985 
292 1 19.8008 15.8155 3.08961 
295 1 21.6159 14.0919 3.16637 
7142 1 27.1205 10.5297 8.8469 
81 1 18.1102 6.58291 -0.176013 
304 1 -0.60054 1.56331 8.77417 
2415 1 12.198 17.9248 4.93278 
596 1 23.6329 16.5386 10.0734 
147 1 23.3522 14.4406 1.39584 
150 1 25.4141 16.376 1.39476 
296 1 23.665 16.0487 2.98202 
299 1 25.4448 14.0752 3.46099 
47 1 14.0048 3.16271 -0.473059 
6751 1 27.0883 1.50121 -0.43839 
48 1 16.1113 4.45844 -0.20124 
158 1 3.0359 1.06779 4.72625 
183 1 1.09779 3.09219 5.28693 
302 1 1.49539 1.24409 7.02086 
335 1 3.11499 3.11967 7.14778 
308 1 3.03811 1.09497 8.84617 
333 1 1.1942 3.27053 8.66383 
129 1 6.90059 14.0858 -0.535592 
162 1 6.51007 0.955703 4.97777 
187 1 4.40866 3.05933 5.00686 
306 1 4.55593 0.936028 6.70564 
339 1 6.39277 3.19497 6.80478 
310 1 8.4319 1.10689 6.77021 
312 1 6.58617 1.16444 8.16747 
337 1 4.94138 3.00831 8.84723 
341 1 8.42226 2.78529 8.3117 
479 1 25.0957 -0.578039 10.5568 
51 1 18.1621 2.95881 -0.240911 
191 1 8.37885 3.11687 4.94224 
166 1 10.4074 1.40807 4.97589 
195 1 12.0052 2.96021 4.89872 
314 1 12.3283 1.36031 6.58196 
343 1 10.1165 2.99799 6.78326 
316 1 10.7177 1.4769 8.81483 
111 1 18.119 10.6545 -0.467507 
94 1 -0.580941 12.2187 1.00376 
170 1 13.7773 1.30233 4.52283 
199 1 16.0575 3.14294 4.94536 
318 1 16.2141 1.24534 6.4877 
347 1 14.066 3.06219 6.6677 
320 1 14.014 1.25499 8.73104 
349 1 15.7587 2.9496 8.65376 
2263 1 10.2094 17.5411 -0.68997 
351 1 17.7016 2.94151 6.6428 
174 1 18.2543 1.09912 4.88559 
178 1 21.465 1.37663 4.86469 
203 1 19.7887 3.39547 5.15211 
322 1 19.6789 1.20766 6.90305 
355 1 21.1114 2.91509 7.03726 
328 1 21.5862 0.568234 8.71509 
353 1 19.599 2.88604 8.52557 
324 1 17.768 1.10281 8.45753 
180 1 25.1351 1.16684 4.81316 
207 1 23.2425 2.86281 4.97046 
326 1 23.2201 1.15478 7.06072 
359 1 25.3252 2.48073 6.63408 
357 1 23.0539 2.78358 8.50131 
138 1 16.0561 15.9517 -0.486584 
188 1 2.76899 5.02037 5.20464 
213 1 1.01797 6.5143 5.26703 
332 1 1.12132 5.07145 6.86768 
365 1 3.29466 7.0268 6.80656 
363 1 1.03186 6.55304 8.70698 
362 1 0.890023 8.31086 6.60597 
218 1 2.80428 8.62114 5.0061 
14 1 12.2856 0.986577 -0.620129 
338 1 2.88157 4.86799 8.67849 
368 1 2.91459 8.491 8.55826 
192 1 6.38407 5.13803 4.81767 
217 1 4.86885 7.35004 4.68981 
336 1 4.91274 5.06073 6.55697 
369 1 6.09499 6.95412 6.6863 
366 1 4.80033 9.06393 6.91354 
221 1 8.29125 6.71272 4.76727 
342 1 6.89836 4.80207 8.55399 
371 1 8.35383 6.68513 8.78778 
367 1 4.86331 6.57341 8.65105 
340 1 8.34976 5.32212 6.31782 
196 1 10.3592 4.79219 5.03171 
225 1 11.9731 6.49882 4.73999 
344 1 12.0391 4.93381 6.55364 
373 1 10.3682 6.56753 6.68764 
226 1 10.1708 8.35009 4.95468 
374 1 12.2155 8.2282 6.83286 
346 1 10.3962 4.98948 8.47509 
375 1 12.2497 6.60343 8.43538 
376 1 10.2483 8.4137 8.36231 
200 1 14.0109 4.91048 5.06389 
229 1 15.9915 6.63197 4.98521 
348 1 16.1023 4.70866 6.95315 
377 1 14.4226 6.2161 6.99126 
350 1 14.0754 4.92518 8.72847 
381 1 18.3436 7.00537 6.13403 
380 1 14.2255 8.23355 8.45875 
204 1 17.9379 5.18191 4.91164 
208 1 21.5879 4.88181 4.87733 
233 1 19.6109 7.2483 4.59666 
352 1 19.6812 5.04705 6.80488 
385 1 21.7806 6.67331 6.61373 
358 1 21.4242 4.79082 8.65716 
238 1 21.608 8.78783 4.72804 
382 1 20.0277 8.74875 6.87377 
354 1 17.6373 4.64354 8.77276 
383 1 19.8421 6.62729 8.35661 
384 1 18.1663 8.41302 8.40363 
388 1 21.5308 8.39558 8.60238 
210 1 25.3458 4.97654 5.20409 
237 1 23.3793 7.12643 4.91458 
356 1 23.2988 4.65862 6.63484 
389 1 25.147 6.59807 6.817 
360 1 25.2999 4.67049 8.17393 
387 1 23.4801 6.50206 8.42114 
390 1 25.0672 8.39405 8.67941 
7111 1 26.9613 8.70489 6.72089 
457 1 5.25239 -0.363629 12.0412 
243 1 0.979753 10.3791 4.56071 
248 1 2.98992 12.0913 4.7742 
392 1 1.3721 12.5067 6.78632 
395 1 2.60187 10.3036 6.94239 
222 1 6.68559 8.88012 4.78726 
247 1 4.60884 10.2327 4.97222 
252 1 6.73478 12.2873 4.7679 
396 1 4.87023 12.0402 6.69437 
399 1 6.64904 10.383 7.0128 
400 1 8.40388 12.1519 6.62679 
251 1 8.66627 10.2636 4.76705 
370 1 8.25414 8.43336 6.8081 
256 1 10.3922 12.1518 4.6651 
255 1 11.9802 10.242 5.12014 
403 1 10.0056 10.3648 6.83376 
404 1 12.156 12.5761 6.86956 
405 1 12.3709 10.287 8.2586 
406 1 10.1126 12.2068 8.43238 
378 1 16.22 8.54939 6.79773 
230 1 13.9787 8.16173 5.01451 
259 1 16.0054 10.5901 4.97815 
260 1 14.2111 12.2649 5.22673 
407 1 14.2039 10.1264 6.5405 
408 1 15.6595 11.9816 7.09565 
234 1 17.8638 8.90349 4.96796 
411 1 17.8397 10.4256 6.62595 
264 1 17.6051 12.4542 5.09402 
263 1 20.0121 10.6132 4.87974 
268 1 21.5685 12.397 5.03466 
412 1 20.1955 12.6753 6.82579 
415 1 21.7906 10.5744 7.09568 
418 1 21.6168 12.5771 8.69198 
414 1 17.8321 12.7562 8.5066 
413 1 19.7313 10.7835 8.46493 
600 1 25.0461 16.0447 12.1166 
240 1 25.2827 8.53107 4.83087 
386 1 23.5128 8.62826 6.94782 
267 1 23.5122 10.3507 5.38585 
270 1 25.5122 12.3469 5.15789 
416 1 23.8211 12.2485 6.95605 
419 1 25.4987 10.4696 6.89725 
417 1 23.4451 10.5978 8.48719 
420 1 25.3656 12.5158 8.77661 
181 1 -0.306058 3.14038 3.3741 
273 1 1.34105 13.8611 4.84766 
278 1 2.9416 16.1799 4.74975 
422 1 1.20765 16.4291 6.41216 
425 1 3.1047 14.4602 6.67366 
423 1 1.1492 14.4229 8.36077 
6871 1 27.0681 15.9828 -0.607879 
428 1 2.70837 16.0651 8.38542 
277 1 4.5622 14.3665 4.68984 
282 1 6.73933 15.8395 4.63044 
426 1 4.56447 16.223 6.36529 
429 1 6.47685 14.0224 6.68266 
430 1 8.56878 16.1195 6.66114 
481 1 -0.00409534 2.82422 11.1434 
7052 1 27.014 -0.472794 8.55898 
281 1 8.60204 14.0003 5.08369 
285 1 12.4113 14.0554 4.70526 
286 1 10.2072 16.0326 4.76186 
433 1 10.598 14.439 6.78551 
434 1 12.367 16.0234 6.65529 
26 1 23.3633 1.7042 -0.409289 
511 1 -0.64938 6.68758 10.5297 
6961 1 27.1483 8.4538 3.01317 
289 1 15.6816 14.4105 4.96458 
290 1 14.0885 16.1135 4.65013 
437 1 13.895 14.1565 6.73286 
438 1 15.9667 16.3268 6.7043 
439 1 16.0363 14.3265 8.39591 
2253 1 1.32824 17.8324 1.11931 
444 1 17.7497 15.6287 8.64216 
2569 1 15.8928 17.7447 8.68265 
56 1 23.4593 4.90863 -0.572546 
294 1 17.6857 15.8081 4.60571 
441 1 17.683 14.1206 6.34948 
443 1 19.8399 14.3575 8.66725 
293 1 19.7576 14.1881 4.94491 
298 1 21.727 15.9857 4.71721 
442 1 19.6467 16.2292 6.52007 
445 1 21.4562 14.5828 6.50742 
448 1 21.3751 15.6323 8.37633 
2409 1 6.62138 17.8108 3.27846 
450 1 25.3009 16.0891 8.68113 
329 1 25.4869 -0.499654 6.60732 
297 1 23.3185 14.0056 4.70883 
300 1 25.4066 16.3101 4.76145 
446 1 23.8183 15.8554 6.7726 
449 1 25.3296 14.1337 6.39201 
28 1 19.6277 1.29347 -0.690191 
7172 1 26.8936 14.2134 8.57819 
55 1 21.4709 3.62128 -0.506438 
452 1 1.19961 1.05826 10.3191 
458 1 3.39575 1.0216 12.3927 
483 1 1.26615 2.96576 13.0366 
485 1 2.68689 3.18204 10.5577 
274 1 -0.614725 16.6164 4.6828 
11 1 8.41521 -0.351626 1.02889 
74 1 12.0417 8.52779 -0.422381 
456 1 4.66948 1.34106 10.379 
462 1 6.6331 1.3851 11.894 
487 1 4.76296 3.14113 12.7287 
489 1 7.15158 2.87101 10.5156 
460 1 8.64849 1.02763 9.69866 
491 1 8.72067 2.8546 12.5919 
2723 1 19.5618 17.7063 12.1869 
345 1 12.0977 3.47624 8.36272 
464 1 12.4801 1.44164 10.7119 
466 1 10.3117 1.21954 12.5233 
493 1 10.1782 3.14148 10.5447 
495 1 12.2954 2.99953 12.4919 
7112 1 26.9986 6.82501 8.65453 
514 1 -0.605598 8.6962 12.2995 
468 1 15.8367 0.934645 10.5 
470 1 14.2485 1.21852 12.4667 
497 1 14.0107 3.04984 10.4504 
499 1 16.07 2.77839 12.4553 
145 1 21.7819 14.4923 -0.472593 
2557 1 4.66098 17.6226 8.5602 
501 1 17.8185 2.72884 10.2568 
474 1 17.9025 1.21826 12.3876 
472 1 19.6084 1.08407 10.2425 
478 1 21.312 1.27546 12.1282 
503 1 19.592 2.6715 12.1298 
505 1 21.611 2.84561 10.5054 
330 1 25.3515 1.27548 8.54802 
476 1 23.3811 0.892651 10.4119 
480 1 25.191 1.22631 12.151 
507 1 23.4014 3.04756 12.0384 
509 1 25.2556 3.02317 10.1475 
2579 1 25.5032 17.7554 6.92954 
165 1 12.3751 -0.55595 4.96856 
482 1 0.90644 5.06133 10.7473 
488 1 2.90484 5.09021 12.0847 
513 1 1.05695 6.9784 12.4208 
515 1 3.20865 6.94545 10.3368 
518 1 2.77165 8.88869 12.221 
512 1 0.977429 8.95033 10.571 
486 1 4.96373 4.81688 10.4576 
492 1 6.82017 4.62615 12.4757 
517 1 4.61235 6.85303 12.4076 
519 1 6.4717 6.60979 10.4202 
516 1 4.97344 8.62574 10.5931 
522 1 6.44717 8.49236 12.2816 
372 1 6.35692 8.57629 8.84566 
490 1 8.61815 4.80766 10.4535 
521 1 8.51104 6.55032 12.2865 
525 1 12.3721 6.45273 12.2723 
496 1 10.3451 5.03421 12.3443 
523 1 10.24 6.7953 10.4059 
494 1 11.9559 4.74111 10.4406 
526 1 10.2487 8.4215 12.7143 
520 1 8.52891 8.67853 10.4512 
524 1 12.057 8.53864 10.3588 
379 1 16.1425 6.63329 9.107 
498 1 15.8623 4.69497 10.5875 
500 1 14.041 4.75374 12.4317 
527 1 14.3392 6.51214 10.691 
529 1 16.1513 6.61083 12.2446 
531 1 17.8707 6.65716 10.5894 
504 1 17.932 4.72406 11.9734 
508 1 21.5421 4.74399 12.0086 
502 1 19.6587 4.56629 10.2206 
533 1 20.1714 6.70135 12.0541 
535 1 22.1275 6.89582 10.3526 
538 1 21.3732 9.17424 12.0646 
532 1 19.9138 8.25566 10.1146 
2725 1 21.3871 17.5879 10.5069 
537 1 23.0725 7.24484 12.4178 
506 1 23.386 4.74466 10.1489 
510 1 25.3225 5.01063 12.2676 
539 1 25.2097 6.13592 10.038 
536 1 23.1766 8.75751 10.4659 
540 1 24.8805 8.86383 12.7294 
393 1 1.20918 10.7245 8.7563 
398 1 3.08852 12.6309 8.83525 
548 1 2.68614 12.4502 12.3108 
542 1 0.974222 12.3079 10.5358 
543 1 1.22348 10.8086 12.4422 
545 1 3.18108 10.5221 10.5918 
142 1 19.8831 15.834 -0.213398 
397 1 4.61255 10.7797 8.51236 
402 1 6.66534 12.574 8.79099 
546 1 4.86295 12.501 10.3722 
547 1 4.76704 10.2547 12.3805 
549 1 6.75205 10.235 10.4156 
552 1 6.50126 12.2165 12.1118 
550 1 8.51296 12.2471 10.5328 
551 1 8.31775 10.2801 12.3282 
401 1 8.46789 10.5326 8.42197 
553 1 10.3175 10.259 10.3843 
554 1 12.1113 12.0401 10.1456 
555 1 12.293 10.4132 12.4639 
556 1 10.3871 11.8529 12.1833 
409 1 15.8034 10.1955 8.71861 
528 1 16.2229 8.58974 10.4731 
410 1 13.971 12.4224 8.58532 
530 1 14.4026 8.58534 12.3193 
560 1 13.8616 12.6128 11.953 
559 1 16.1799 10.4642 12.2887 
558 1 15.9243 12.3853 10.3525 
557 1 14.0369 10.3884 10.3537 
564 1 17.7837 12.3173 12.3088 
534 1 17.9627 8.6581 12.1242 
561 1 17.9095 10.6984 10.364 
565 1 21.3092 10.653 10.0443 
563 1 19.5067 10.7328 11.9508 
562 1 19.8178 12.7655 10.3619 
568 1 21.606 12.2358 12.2558 
141 1 18.1073 14.27 -0.478098 
2417 1 13.9617 17.6727 2.75816 
567 1 23.3496 10.6046 12.3477 
569 1 25.5039 10.561 10.6516 
566 1 23.3787 12.3019 10.3786 
570 1 25.3483 12.3527 12.1723 
244 1 -0.653379 12.1773 5.01275 
597 1 23.2177 14.2041 12.6456 
2405 1 2.95427 17.6955 2.96411 
572 1 0.994881 15.9165 10.6335 
575 1 2.88072 14.0963 10.2998 
573 1 1.13237 14.0492 12.6169 
578 1 2.98474 15.7738 12.5843 
432 1 6.76312 16.0347 8.40941 
427 1 4.75149 14.1003 8.33312 
576 1 4.83139 15.9311 10.7947 
2709 1 6.52618 17.7045 10.2681 
577 1 4.69911 14.1076 12.1225 
582 1 6.7481 15.8503 12.3926 
579 1 6.71872 14.6275 10.1056 
584 1 12.1971 15.8775 10.4959 
173 1 20.0754 -0.635521 5.13111 
431 1 8.36776 14.3037 8.21209 
583 1 10.1947 14.3235 10.577 
580 1 8.51829 16.0016 10.4082 
2571 1 17.8773 17.7911 6.46409 
585 1 11.9507 13.8693 11.9832 
586 1 10.8382 16.1925 12.2709 
436 1 10.5043 15.9451 8.74097 
581 1 8.85016 14.3512 12.519 
435 1 12.2344 14.2363 8.61767 
588 1 16.022 15.9857 10.4871 
440 1 14.0271 15.6885 8.56206 
591 1 17.6721 14.0196 10.3408 
589 1 16.1461 14.0914 12.4977 
7232 1 26.7168 2.66563 12.4398 
587 1 13.9639 14.381 10.3695 
590 1 13.8109 15.9577 12.1959 
7261 1 26.8714 8.52999 10.6745 
592 1 19.6108 15.804 10.4924 
594 1 17.7847 16.1702 12.1594 
593 1 19.5968 14.2061 12.2982 
598 1 21.8714 16.1074 12.3966 
595 1 21.8458 14.5492 10.5777 
7231 1 27.1342 4.49525 10.5679 
447 1 23.8022 14.2162 8.41836 
100 1 8.46455 12.2372 -0.572476 
9452 1 26.8776 17.799 12.2017 
2717 1 14.1763 17.5395 10.3634 
2707 1 4.93263 17.7911 12.4148 
85 1 21.5094 6.85292 -0.572647 
146 1 23.1943 16.0619 -0.459845 
2703 1 1.13651 17.8027 12.1755 
161 1 8.80261 -0.620331 5.18173 
2419 1 16.0116 17.8732 4.47997 
2257 1 5.05468 17.8525 1.28742 
137 1 13.7404 14.1962 -0.675911 
315 1 12.3321 -0.165412 8.51941 
27 1 23.4726 -0.607134 1.05852 
2275 1 21.7742 17.8137 -0.474273 
2255 1 2.97069 17.5952 -0.547798 
155 1 3.22578 -0.310459 2.83316 
2573 1 19.5106 17.6893 8.54379 
2719 1 15.565 17.8175 12.15 
2727 1 23.3701 17.8378 12.0888 
2565 1 12.449 17.7458 8.74729 
126 1 5.00587 16.0429 -0.551346 
103 1 9.91765 10.4348 -0.625371 
43 1 10.3111 2.97182 -0.628692 
608 1 3.35781 1.33539 16.3907 
633 1 1.44039 2.73237 16.1249 
635 1 3.13138 2.88338 14.289 
602 1 1.30964 0.830221 13.9582 
7652 1 26.9312 -0.685492 23.3777 
752 1 1.48983 1.16953 17.8787 
621 1 18.029 -0.598366 14.0537 
1129 1 3.06485 1.28687 27.0191 
7351 1 26.7378 1.16811 14.2993 
606 1 5.01815 1.3648 14.4059 
612 1 6.9247 1.11884 16.257 
637 1 4.97203 3.14381 15.8806 
639 1 6.85444 2.95747 14.4747 
641 1 8.65111 2.99929 16.0456 
7441 1 26.6814 12.4606 14.6367 
3386 1 19.6598 17.82 26.8373 
610 1 8.53678 1.2146 14.5353 
614 1 12.2872 1.06427 14.2911 
616 1 10.2087 1.36735 16.2332 
643 1 10.5577 2.94441 14.3816 
645 1 11.9732 2.96417 16.57 
793 1 10.3793 3.24253 18.2642 
1167 1 17.6966 8.71199 27.0009 
618 1 16.0998 1.02412 14.2836 
620 1 13.7733 1.42099 16.2481 
647 1 14.0127 2.93121 14.3185 
649 1 15.9849 3.23876 15.8762 
797 1 14.0273 3.24797 17.9346 
1161 1 6.5401 8.74797 27.0304 
1123 1 21.3774 13.8147 25.2262 
624 1 17.8946 1.16799 15.9428 
651 1 17.7868 3.04361 13.9097 
622 1 19.7754 1.02355 14.1036 
628 1 21.8943 1.19458 15.6056 
653 1 19.8093 2.6495 15.4153 
655 1 21.8207 2.86549 14.0021 
771 1 17.631 -0.474043 17.9052 
1126 1 1.42258 -0.408936 26.8846 
626 1 23.1456 0.927384 13.6362 
630 1 24.8226 1.42388 15.8017 
657 1 23.3391 3.10953 16.0135 
659 1 24.8988 3.53466 14.2481 
809 1 25.2467 2.91116 17.9535 
776 1 23.4041 1.1882 17.8417 
609 1 6.8023 -0.399423 14.3346 
934 1 -0.477904 4.69609 23.2403 
615 1 11.876 -0.615366 15.7592 
632 1 1.28345 5.09243 14.0835 
638 1 2.9808 4.42293 16.1078 
663 1 1.14775 6.93432 15.896 
665 1 2.91962 7.19228 14.2511 
668 1 2.71888 8.84551 15.8049 
1153 1 23.051 2.94506 27.1514 
7712 1 27.0653 6.80369 23.0858 
636 1 4.6066 4.94657 14.1361 
642 1 6.81627 5.02206 15.885 
667 1 4.6649 6.5802 15.8447 
669 1 6.41574 6.80995 14.2424 
671 1 8.48372 6.52088 15.8575 
640 1 8.73401 4.79167 14.3201 
672 1 6.53517 8.649 15.9246 
666 1 4.9055 8.87327 14.2916 
819 1 6.75956 6.89856 17.5277 
790 1 8.3351 4.9007 17.9951 
644 1 11.9673 4.7045 14.2957 
646 1 10.3388 4.8703 16.1552 
673 1 10.4964 6.89 14.1397 
675 1 12.1315 6.64506 15.8158 
794 1 12.0814 4.87013 18.0529 
674 1 12.3186 8.64543 14.0442 
823 1 10.3385 6.55101 17.8566 
648 1 16.2672 4.78694 13.921 
650 1 13.8876 4.75653 15.9219 
679 1 15.8554 6.6035 15.8454 
677 1 14.1178 6.57225 14.3141 
681 1 18.2819 6.77787 14.0123 
678 1 15.9365 8.26475 14.1495 
798 1 16.0211 4.4888 17.7037 
654 1 18.0173 4.82926 15.5846 
652 1 19.7161 5.06262 13.6593 
658 1 21.4796 4.97347 15.5236 
683 1 19.3814 6.71503 16.1998 
685 1 21.4508 7.07779 14.1226 
688 1 21.3446 8.68387 16.0858 
831 1 17.5543 6.81537 17.7375 
660 1 25.1649 5.27699 15.636 
687 1 23.1458 6.88572 15.8694 
689 1 25.0719 6.82472 14.0124 
656 1 23.0789 5.0455 13.5089 
806 1 23.212 4.49652 17.8239 
839 1 24.8583 6.47994 17.8759 
724 1 -0.645983 16.2138 16.1556 
812 1 1.14095 8.6101 17.8263 
662 1 0.541806 8.85391 13.9944 
692 1 0.822853 12.1234 14.425 
693 1 1.13909 10.6554 16.241 
695 1 2.78718 10.4003 14.1095 
698 1 2.92801 12.2565 15.8647 
696 1 4.48061 12.457 13.9765 
697 1 4.82795 10.5666 15.9159 
702 1 6.70534 12.2388 16.2094 
699 1 6.89439 10.3898 14.1349 
816 1 4.5826 8.56082 17.6731 
700 1 8.49908 12.3812 14.0773 
701 1 8.38934 10.7051 15.998 
670 1 8.33419 8.26109 13.9479 
850 1 8.52494 12.3167 17.9561 
676 1 10.5933 8.47942 15.9003 
704 1 12.0829 12.2115 14.1251 
705 1 11.8253 10.3589 15.6783 
706 1 10.1185 12.4405 15.7372 
703 1 10.0139 10.6598 14.3039 
853 1 10.3941 10.4142 17.5904 
854 1 12.2956 12.5697 17.8676 
824 1 12.011 8.23266 17.9563 
680 1 13.8756 8.5345 16.1814 
707 1 13.8587 10.0869 14.1005 
708 1 15.9633 11.9781 13.9358 
709 1 15.855 10.1591 15.8349 
710 1 14.0048 11.9339 15.4665 
714 1 17.7374 12.172 15.8 
828 1 15.7301 8.47364 17.8068 
857 1 14.0246 10.3425 17.5562 
682 1 19.8808 8.7822 14.2062 
684 1 17.8049 8.57564 16.2339 
711 1 17.7866 10.2934 14.5493 
713 1 19.6059 10.6627 16.4985 
715 1 21.1836 10.7391 14.257 
718 1 21.5455 12.5829 16.4702 
712 1 19.4973 12.2549 14.2109 
861 1 17.5354 10.4772 17.8892 
686 1 22.9837 9.15929 14.297 
690 1 25.3431 8.37101 15.8767 
716 1 23.1202 12.251 14.5314 
717 1 23.0057 10.7962 16.2264 
720 1 25.086 12.1397 16.348 
719 1 25.4151 10.4978 14.5307 
869 1 25.2453 10.0472 17.5554 
836 1 23.2567 8.63938 17.6869 
874 1 -0.680281 15.925 19.7401 
3155 1 2.91611 17.7481 21.8327 
722 1 1.14885 16.0808 14.2813 
723 1 1.27417 14.0391 16.1488 
725 1 2.53482 14.1129 14.3865 
728 1 3.05463 16.0571 16.215 
872 1 1.23104 15.697 17.5437 
7411 1 26.9267 8.77353 14.0055 
1152 1 17.6524 4.81237 27.0562 
1189 1 3.17981 16.4264 26.9123 
1193 1 10.4283 16.1635 27.078 
726 1 4.98356 15.6901 13.9197 
727 1 4.66591 13.9166 16.1217 
729 1 6.69271 14.0035 14.1202 
732 1 6.38583 15.4811 16.0301 
731 1 8.57924 14.3119 15.7675 
876 1 4.79493 16.0648 18.1644 
879 1 6.47996 14.0502 17.9654 
730 1 8.4376 16.2496 14.018 
733 1 10.474 14.1136 14.0875 
734 1 12.1485 16.0071 14.3525 
735 1 12.0968 14.0035 16.1018 
736 1 10.1765 15.7507 15.949 
883 1 10.4291 13.987 17.8265 
884 1 12.4195 15.8844 17.645 
1148 1 10.2574 5.23666 26.791 
779 1 25.3335 -0.250362 18.1648 
737 1 13.8852 13.9398 14.0209 
738 1 15.9715 16.025 13.7824 
739 1 15.9878 13.8668 15.7033 
740 1 14.189 15.7211 15.7745 
887 1 14.297 13.9765 17.5536 
744 1 17.56 16.1172 15.8619 
741 1 17.9836 14.2133 14.057 
742 1 19.4375 15.9642 14.1305 
743 1 19.5644 14.2513 16.1836 
745 1 20.9761 14.3561 14.2287 
748 1 21.5579 16.1434 15.7441 
3179 1 25.0059 17.3492 21.3438 
891 1 17.7975 14.1197 18.1073 
895 1 21.3082 14.2605 18.0629 
3307 1 10.1816 17.8473 24.9441 
746 1 23.8369 16.2957 13.9577 
747 1 23.0537 14.2935 16.1632 
749 1 25.4544 14.4351 14.0182 
750 1 25.2344 15.9275 15.8641 
899 1 25.4843 14.0945 18.1244 
781 1 -0.378922 2.92478 18.0708 
775 1 21.7049 -0.555144 17.9016 
814 1 -0.407041 8.73794 19.9879 
1187 1 -0.035843 16.5536 27.0306 
785 1 3.10147 2.99124 18.2039 
758 1 2.95498 0.811894 19.5656 
783 1 1.74673 2.77724 19.8474 
902 1 1.07552 0.862441 21.541 
935 1 3.11156 2.74614 21.5488 
1164 1 16.4796 6.54407 27.1187 
7801 1 27.0059 0.824827 25.4786 
756 1 5.00109 1.45993 18.3152 
789 1 6.69792 3.04181 17.68 
760 1 8.81024 1.02887 17.7999 
762 1 7.1783 1.07687 19.7392 
787 1 4.672 3.17081 19.6798 
906 1 4.94829 0.984451 21.703 
939 1 6.60959 3.1105 21.411 
910 1 8.88615 0.882158 21.5314 
661 1 -0.724568 6.74889 14.3973 
1081 1 -0.455728 6.70531 25.4759 
791 1 8.47414 3.3703 19.975 
764 1 12.0217 0.932598 18.0831 
766 1 10.3067 1.16469 19.6832 
795 1 12.1062 3.04526 19.759 
914 1 12.0858 1.49598 21.9358 
943 1 10.174 2.9464 21.6508 
1119 1 14.1869 14.3969 25.2923 
7352 1 26.7012 -0.366881 16.225 
7531 1 26.6352 4.97431 17.6976 
768 1 16.1162 1.60747 18.0926 
770 1 13.941 1.57399 19.4691 
799 1 16.1187 3.04875 19.8025 
918 1 15.9212 1.03508 21.5048 
947 1 13.7747 3.16597 21.7794 
951 1 18.1137 2.98713 21.1701 
774 1 17.833 1.01526 19.3577 
7741 1 27.0103 12.2929 21.3796 
772 1 19.5515 1.06116 17.9042 
805 1 21.2511 2.73021 17.7365 
801 1 18.1208 3.15173 17.7326 
778 1 21.4204 1.15356 19.7698 
803 1 20.1078 3.00325 19.6204 
922 1 19.4562 0.935378 21.6218 
955 1 21.8395 3.06833 21.4986 
784 1 -0.361696 5.13839 19.8819 
780 1 25.255 1.2516 19.9539 
807 1 23.0502 2.97349 19.5222 
926 1 23.0607 1.30534 21.7787 
959 1 24.9948 2.85997 21.6315 
782 1 1.29213 4.95275 17.8004 
815 1 2.72643 6.87114 17.4302 
788 1 3.28015 4.99262 20.1012 
813 1 1.58374 6.78178 19.6819 
932 1 1.39344 5.07036 21.5046 
965 1 3.24793 6.96129 21.3596 
1130 1 8.22121 -0.614509 26.9047 
964 1 -0.436726 8.61953 23.4587 
1047 1 23.1296 13.8072 23.211 
786 1 4.90091 4.90302 17.5162 
792 1 6.60451 5.05261 19.5206 
817 1 4.82023 6.71896 19.4931 
936 1 5.23555 4.73805 21.4218 
969 1 6.66555 6.82803 21.9308 
966 1 4.92816 8.66529 21.5742 
822 1 6.51452 8.61852 19.286 
821 1 8.32944 6.79988 19.5334 
940 1 8.37936 5.02571 21.5559 
796 1 10.2813 5.06775 19.5709 
825 1 12.4158 6.77219 19.9674 
944 1 12.4592 4.8288 21.2532 
973 1 10.3036 6.73216 21.6404 
826 1 10.1609 8.62862 19.6557 
820 1 8.42446 8.63889 17.92 
974 1 12.0943 8.86217 21.2825 
827 1 13.9524 6.63556 17.7964 
800 1 14.4539 4.83515 19.6786 
829 1 15.7624 6.72395 19.6241 
948 1 16.1343 4.95904 21.4636 
977 1 14.1846 6.85745 21.8514 
830 1 13.9545 8.93283 19.3357 
981 1 17.9853 7.01218 21.1316 
802 1 19.3594 5.19974 17.6814 
835 1 21.4998 6.64183 17.809 
804 1 18.022 4.85638 19.7616 
808 1 21.1956 4.72386 19.2461 
833 1 19.5727 6.89376 19.5782 
952 1 19.7291 4.82808 21.2912 
985 1 21.3142 6.68209 21.4643 
838 1 21.2692 8.4505 19.6412 
832 1 19.4338 8.59569 18.0358 
982 1 19.9773 8.65959 21.8162 
810 1 25.2154 4.8302 19.5612 
837 1 23.026 6.52535 19.5494 
956 1 23.4922 5.03463 21.629 
989 1 25.0483 6.92972 21.6741 
986 1 23.043 8.21004 21.6634 
840 1 24.8692 8.49883 19.9251 
1044 1 17.7781 15.7792 23.3979 
1191 1 6.65249 15.8823 26.545 
1120 1 15.8351 16.2613 25.6221 
845 1 2.6944 10.4631 17.6651 
842 1 1.24107 12.2952 18.2558 
962 1 1.35418 8.84885 21.8067 
818 1 3.07864 8.6722 19.7059 
843 1 1.37285 10.1678 19.526 
848 1 3.00607 12.166 19.7778 
992 1 1.24739 12.4255 21.7228 
995 1 2.85591 10.5809 21.8032 
901 1 -0.536587 -0.507526 21.3837 
846 1 4.7367 12.1504 17.9372 
849 1 6.98006 10.6325 17.9806 
847 1 5.00243 10.358 19.8118 
852 1 6.62599 12.1951 19.911 
996 1 4.90815 12.2787 21.4431 
999 1 6.64208 10.1599 21.5 
970 1 8.54632 8.83465 21.5888 
851 1 8.56654 10.3556 19.7442 
1000 1 8.16896 12.3285 21.5931 
855 1 12.2772 10.642 19.5435 
856 1 10.2319 12.2237 19.8289 
1003 1 10.369 10.302 21.607 
1004 1 12.0757 12.2669 21.6983 
978 1 15.6614 8.63792 21.6608 
858 1 16.0859 12.3693 17.5093 
859 1 15.6698 10.8572 19.6178 
860 1 13.9841 12.5527 19.967 
1007 1 13.7843 10.6537 21.8251 
1008 1 15.7633 12.2465 21.6223 
864 1 17.4955 12.2551 19.8823 
834 1 17.4921 8.8974 19.5807 
1011 1 17.722 10.3081 21.3781 
862 1 19.7889 12.4153 18.2316 
865 1 21.656 10.3991 18.1919 
863 1 19.6015 10.4903 19.7522 
868 1 21.6684 12.3727 19.8559 
1012 1 19.5296 11.887 21.5462 
1015 1 21.8706 10.4631 21.5447 
866 1 23.692 12.8422 17.978 
867 1 23.7931 10.5595 19.6324 
870 1 25.1569 12.4935 19.9495 
1016 1 23.6897 12.0954 21.8021 
1019 1 25.4762 10.4148 21.9428 
1157 1 -0.363537 8.52428 27.0359 
1166 1 19.2882 6.91526 26.9904 
7561 1 26.9947 8.31861 18.2578 
7442 1 27.0852 10.3465 15.8245 
875 1 3.20408 14.3465 18.1508 
7742 1 26.6797 10.4827 23.8944 
873 1 0.923962 14.043 19.4172 
878 1 2.69912 16.3218 19.9539 
1022 1 1.26523 16.1953 21.738 
1025 1 2.79339 14.0943 21.2135 
1040 1 14.0387 16.4309 23.5308 
3378 1 5.01855 17.7805 27.0409 
7592 1 26.8263 10.5898 20.1416 
1024 1 -0.416121 16.0499 23.7705 
877 1 5.01253 14.1553 19.9112 
882 1 6.82225 16.1992 19.6917 
1026 1 4.70113 16.1649 21.0517 
1029 1 7.1848 14.1378 21.8954 
881 1 8.29638 14.1896 19.6183 
603 1 1.34501 -0.648017 15.9503 
1143 1 4.67819 3.09857 26.7476 
844 1 -0.422689 12.1039 20.005 
880 1 8.64458 15.4602 17.9135 
1030 1 8.65013 16.1234 21.3309 
1034 1 12.2677 15.933 21.595 
885 1 12.3101 14.0387 19.8547 
886 1 10.5672 15.8348 19.7853 
1033 1 10.2495 14.2194 21.6002 
7562 1 26.6241 6.62207 20.0262 
1050 1 25.8076 16.0459 23.8654 
888 1 15.9657 16.0658 17.9354 
889 1 15.8889 14.4528 20.2259 
890 1 13.7643 16.3226 20.0618 
1037 1 13.6609 14.302 21.9744 
1038 1 15.644 16.4816 21.7453 
894 1 17.6202 16.2791 19.583 
1055 1 6.80595 -0.593178 25.0842 
1041 1 17.8415 14.199 21.6377 
892 1 19.5075 16.3317 18.0296 
893 1 19.544 14.0156 19.9665 
898 1 21.2068 15.9951 20.083 
1042 1 19.3613 16.1796 21.7185 
1045 1 21.2482 13.7597 21.6787 
3029 1 25.5009 17.8003 17.8272 
2851 1 -0.634477 17.6241 13.9086 
7711 1 26.8837 8.80071 21.5836 
1048 1 21.3508 16.0312 23.5472 
896 1 23.3435 16.2053 17.603 
1046 1 22.8979 16.0158 21.7511 
897 1 23.3261 14.2244 20.0612 
900 1 25.2425 16.0894 19.8853 
1049 1 25.5712 14.1184 21.7893 
1059 1 14.143 -0.477768 25.0562 
927 1 23.0876 -0.674825 23.4762 
3175 1 21.1374 17.8876 21.8954 
3313 1 21.2669 17.5183 25.0369 
991 1 -0.501061 10.4909 21.7041 
908 1 3.01193 0.815994 23.2967 
933 1 1.0536 2.86228 22.8619 
1052 1 1.21825 1.18043 24.7753 
1068 1 3.03352 3.11489 24.9574 
3309 1 13.9878 17.6418 25.4081 
7382 1 26.7444 3.13152 15.8647 
1096 1 -0.42695 10.4437 25.4139 
1141 1 1.55256 3.09825 26.8573 
912 1 6.77059 1.31889 23.1632 
937 1 4.6497 2.96394 23.5 