Position data Generated by SPaMD
36	atoms
1	atom types
0.000000		4.427453	xlo xhi
0.000000		2.556191	ylo yhi
0.000000		37.568184	zlo zhi
0.000000		0.000000	0.000000	xy xz yz

Atoms

1	1	0.000000	0.000000	9.392046
2	1	2.951635	0.000000	11.479167
3	1	2.213726	1.278096	9.392046
4	1	1.475818	0.000000	13.566288
5	1	3.689544	1.278096	13.566288
6	1	0.737909	1.278096	11.479167
7	1	0.000000	0.000000	15.653410
8	1	2.951635	0.000000	17.740531
9	1	2.213726	1.278096	15.653410
10	1	1.475818	0.000000	1.043560
11	1	3.689544	1.278096	1.043560
12	1	0.737909	1.278096	17.740531
13	1	0.000000	0.000000	3.130682
14	1	2.951635	0.000000	5.217803
15	1	2.213726	1.278096	3.130682
16	1	1.475818	0.000000	7.304924
17	1	3.689544	1.278096	7.304924
18	1	0.737909	1.278096	5.217803
19	1	1.475816	0.000000	28.176138
20	1	4.427451	0.000000	26.089017
21	1	3.689542	1.278096	28.176138
22	1	2.951634	0.000000	24.001896
23	1	0.737907	1.278096	24.001896
24	1	2.213725	1.278096	26.089017
25	1	1.475816	0.000000	21.914774
26	1	4.427451	0.000000	19.827653
27	1	3.689542	1.278096	21.914774
28	1	2.951634	0.000000	36.524624
29	1	0.737907	1.278096	36.524624
30	1	2.213725	1.278096	19.827653
31	1	1.475816	0.000000	34.437502
32	1	4.427451	0.000000	32.350381
33	1	3.689542	1.278096	34.437502
34	1	2.951634	0.000000	30.263260
35	1	0.737907	1.278096	30.263260
36	1	2.213725	1.278096	32.350381
