Position data Generated by SPaMD
30	atoms
2	atom types
0.000000		4.758900	xlo xhi
0.000000		4.121328	ylo yhi
0.000000		12.991000	zlo zhi
-2.379450		0.000000	0.000000	xy xz yz

Atoms

1	1	0.000000	2.747552	10.582088
2	1	2.379450	1.373776	8.904412
3	1	0.000000	0.000000	8.416921
4	1	-0.000000	2.747552	6.739246
5	1	0.000000	0.000000	1.921421
6	1	0.000000	2.747552	0.243746
7	1	2.379450	1.373776	12.747254
8	1	0.000000	0.000000	11.069579
9	1	2.379450	1.373776	6.251754
10	1	0.000000	0.000000	4.574079
11	1	0.000000	2.747552	4.086588
12	1	2.379450	1.373776	2.408912
13	2	0.922534	1.373776	7.578083
14	2	1.650992	2.859602	9.743250
15	2	3.107908	2.635502	7.578083
16	2	3.107908	0.112050	7.578083
17	2	-0.728458	1.261726	9.743250
18	2	1.456916	0.000000	9.743250
19	2	-1.456916	2.747552	11.908417
20	2	1.650992	0.112050	1.082583
21	2	0.728458	4.009278	11.908417
22	2	0.728458	1.485826	11.908417
23	2	1.650992	2.635502	1.082583
24	2	3.836366	1.373776	1.082583
25	2	3.301984	0.000000	3.247750
26	2	-0.728458	1.485826	5.412917
27	2	0.728458	1.261726	3.247750
28	2	-1.650992	2.859602	3.247750
29	2	-0.728458	4.009278	5.412917
30	2	1.456916	2.747552	5.412917
