Position data Generated by SPaMD
10	atoms
2	atom types
0.000000		3.400900	xlo xhi
0.000000		2.789500	ylo yhi
0.000000		7.076200	zlo zhi
0.000000		0.000000	0.000000	xy xz yz

Atoms

1	1	2.675488	1.561562	0.555482
2	1	0.822338	2.755747	1.764097
3	1	2.649641	1.345934	2.821281
4	1	0.682561	1.298791	4.175666
5	1	2.816625	2.767742	5.317764
6	1	0.937288	1.698527	6.580866
7	2	0.711128	1.354302	0.461368
8	2	1.525304	2.728689	3.269204
9	2	0.952932	0.085638	5.050992
10	2	2.018094	1.331428	6.174692
