Position data Generated by SPaMD
2	atoms
2	atom types
0.000000		4.143698	xlo xhi
0.000000		4.143698	ylo yhi
0.000000		4.143698	zlo zhi
0.000000		0.000000	0.000000	xy xz yz

Atoms

1	1	0.000000	0.000000	0.000000
2	2	2.071849	2.071849	2.071849
