Position data Generated by SPaMD
32	atoms
1	atom types
0.000000		7.047200	xlo xhi
0.000000		7.047200	ylo yhi
0.000000		7.047200	zlo zhi
0.000000		0.000000	0.000000	xy xz yz

Atoms

1	1	0.000000	0.000000	0.000000
2	1	0.000000	1.761800	1.761800
3	1	1.761800	0.000000	1.761800
4	1	1.761800	1.761800	0.000000
5	1	0.000000	0.000000	3.523600
6	1	0.000000	1.761800	5.285400
7	1	1.761800	0.000000	5.285400
8	1	1.761800	1.761800	3.523600
9	1	0.000000	3.523600	0.000000
10	1	0.000000	5.285400	1.761800
11	1	1.761800	3.523600	1.761800
12	1	1.761800	5.285400	0.000000
13	1	0.000000	3.523600	3.523600
14	1	0.000000	5.285400	5.285400
15	1	1.761800	3.523600	5.285400
16	1	1.761800	5.285400	3.523600
17	1	3.523600	0.000000	0.000000
18	1	3.523600	1.761800	1.761800
19	1	5.285400	0.000000	1.761800
20	1	5.285400	1.761800	0.000000
21	1	3.523600	0.000000	3.523600
22	1	3.523600	1.761800	5.285400
23	1	5.285400	0.000000	5.285400
24	1	5.285400	1.761800	3.523600
25	1	3.523600	3.523600	0.000000
26	1	3.523600	5.285400	1.761800
27	1	5.285400	3.523600	1.761800
28	1	5.285400	5.285400	0.000000
29	1	3.523600	3.523600	3.523600
30	1	3.523600	5.285400	5.285400
31	1	5.285400	3.523600	5.285400
32	1	5.285400	5.285400	3.523600
