Position data Generated by SPaMD
1	atoms
1	atom types
0.000000		2.491561	xlo xhi
0.000000		2.157756	ylo yhi
0.000000		2.034351	zlo zhi
1.245781		1.245781	0.719252	xy xz yz

Atoms

1	1	0.000000	0.000000	0.000000
