Position data Generated by SPaMD
10	atoms
3	atom types
0.000000		6.172100	xlo xhi
0.000000		5.345195	ylo yhi
0.000000		5.742100	zlo zhi
-3.086049		0.000000	0.000000	xy xz yz

Atoms

1	1	3.086050	1.781732	1.435525
2	1	0.000000	3.563464	4.306575
3	2	0.000000	0.000000	0.000000
4	2	0.000000	0.000000	2.871050
5	3	3.086050	3.263342	4.306575
6	3	1.802938	1.040927	4.306575
7	3	4.369162	1.040927	4.306575
8	3	0.000000	2.081853	1.435525
9	3	1.283112	4.304269	1.435525
10	3	-1.283112	4.304269	1.435525
