ITEM: TIMESTEP
2000000
ITEM: NUMBER OF ATOMS
10000
ITEM: BOX BOUNDS pp pp pp
-3.1275919403446260e+00 3.9277591940344124e+01
-3.1275919403446260e+00 3.9277591940344124e+01
-7.8189798508788115e+00 9.8193979850883608e+01
ITEM: ATOMS id type x y z 
401 2 13.5619 -3.13241 5.35596 
4376 2 -1.57241 -2.99339 -3.96225 
6496 2 14.2304 8.91997 -7.46003 
5315 2 1.42989 -1.56977 -5.13753 
9161 1 4.87633 -0.664497 -2.81891 
6429 2 4.41201 -0.407259 -6.32461 
977 1 4.37211 1.8872 -3.33135 
3207 2 2.82532 2.03204 -6.06512 
4525 2 7.89481 -0.982838 -3.4527 
5772 2 6.44155 1.22185 -4.43977 
8500 1 -2.00735 -0.801486 -1.70931 
9700 2 6.88015 0.0955959 -7.10856 
8431 2 11.8804 -0.262792 -4.66255 
1811 1 9.69131 -1.8034 -5.49104 
713 1 -2.62977 1.99886 -2.66113 
1725 2 16.5593 -0.907347 -6.45117 
6885 1 14.5853 -0.561548 -4.91408 
1234 2 17.4003 0.327218 -4.16338 
7194 2 -1.33342 -0.0363874 -4.91053 
3050 2 -0.346837 3.32128 -4.55492 
3299 2 1.80763 17.2864 -5.04515 
366 1 -2.86239 9.96327 6.82874 
3170 1 1.67655 5.1453 -5.60905 
2833 2 3.41564 4.07832 -3.4679 
8600 1 4.87402 2.23754 -7.70042 
918 2 4.9671 4.13488 -6.10026 
9397 2 6.89726 4.16479 -3.23268 
4787 1 12.2787 4.59394 -5.46125 
4969 2 11.4196 2.4568 -6.31878 
5257 2 9.31992 2.06887 -3.56992 
9488 2 7.69635 3.12482 -6.78084 
5173 2 12.295 3.43109 -3.18997 
4680 2 4.46786 17.9783 -3.12188 
8625 2 14.559 -1.35424 0.926495 
9066 2 14.3443 2.15245 -5.03975 
3657 2 16.8177 5.0422 -6.63953 
6678 2 10.4687 -2.84549 6.87971 
3857 1 0.0250674 17.2402 -2.89392 
3348 1 -2.43335 4.34467 -4.69009 
1249 2 -1.73198 8.45547 -5.48024 
8427 1 0.392792 7.08064 -7.11686 
7837 2 2.51566 9.36607 -5.91068 
6152 2 2.97048 6.88999 -7.15801 
9619 2 -0.00057042 7.00996 -4.02382 
5484 1 4.74165 6.21957 -4.68361 
8061 2 3.38436 17.4157 4.59061 
1238 1 4.96727 8.71641 -6.29818 
2159 1 2.55203 6.88239 -3.3481 
733 2 8.20775 5.69815 -6.22037 
7859 1 6.717 7.72332 -5.12658 
7665 1 12.3848 6.9125 -6.19515 
6309 2 11.6258 6.68017 -3.59924 
3877 1 15.1575 6.65801 -7.5362 
6822 2 8.8785 9.39079 -6.0347 
3973 1 16.2459 7.29188 -5.29538 
5544 2 14.7683 9.16435 -4.19807 
7611 2 17.0777 17.8631 -7.1704 
7355 1 11.5236 -2.5009 -7.34167 
3320 1 12.6773 -2.81316 8.04439 
2123 2 -2.33 11.347 -3.44896 
3410 2 0.259955 11.6391 -5.596 
8752 2 5.12135 11.4226 -7.34766 
3722 1 1.41539 13.0491 -2.92642 
2831 2 3.08324 11.7678 -4.57539 
2263 2 6.41173 10.6399 -4.61817 
6767 1 8.83595 12.8808 -6.15859 
5464 1 6.92311 11.8947 -1.34706 
3956 1 -2.40586 4.56498 6.8042 
1870 2 -2.08064 -2.24844 4.40875 
8054 1 11.7046 12.1115 -7.17651 
9437 2 11.6601 9.48999 -5.10314 
1825 2 -2.26964 7.61245 6.50441 
8953 1 14.5832 15.6276 -3.77391 
1199 1 13.8078 11.0312 -6.2229 
3911 2 16.5123 11.6812 -6.13231 
2087 2 15.7097 13.2974 -3.51599 
4071 1 2.264 14.5356 9.40103 
7004 2 14.1398 15.1613 8.47342 
1002 2 -1.06714 15.0854 -4.24295 
621 1 6.50113 -3.00155 -1.93627 
9782 2 0.696625 17.3349 5.60629 
3682 2 -3.10132 -0.28461 2.3829 
5580 1 17.2735 3.24118 2.91513 
277 2 17.5356 16.2776 2.79877 
6600 1 1.85687 13.666 -5.65281 
4623 1 2.9136 15.1868 -7.01144 
5627 1 4.68889 17.0797 -5.93159 
5271 2 5.81237 13.7796 -5.68476 
7989 1 8.41861 15.4189 -6.32325 
423 2 8.14425 13.8275 -3.52428 
516 2 5.99467 -2.93391 -5.02004 
8199 1 12.4826 -2.88553 0.391169 
300 2 11.5756 15.5427 -5.42442 
7948 1 12.2389 17.4556 -3.78412 
865 1 10.7973 8.00306 -7.51242 
8359 2 8.89114 17.2157 -4.16288 
7545 1 15.2761 17.6001 -2.25245 
9031 2 13.5166 13.8921 -5.67435 
3072 1 1.01304 3.27493 8.62113 
5902 1 0.206379 -1.25892 -2.72002 
2884 1 4.63186 17.8242 8.89596 
7176 2 -0.712919 -0.560588 0.604049 
7038 2 17.8661 16.7904 6.72245 
8732 2 2.38475 0.120251 -2.22839 
4364 2 6.08377 -0.134211 -0.74807 
663 1 1.84805 -1.41694 0.166048 
5790 1 -1.72495 14.541 6.40935 
1726 2 8.46969 -2.19904 0.748309 
9625 1 9.15589 -0.246087 -1.40308 
9053 1 9.22067 0.364626 -5.56735 
7444 2 10.7352 -0.833079 0.958989 
8333 1 13.5386 0.601954 0.279488 
4794 2 13.5765 -1.08326 -2.17287 
9279 2 10.557 -2.19099 -2.28665 
8610 2 8.28622 13.0313 9.34391 
6539 1 16.3947 0.890234 0.641679 
3891 2 15.5233 1.17758 -2.15276 
3392 2 16.4563 -1.79658 -2.25276 
4038 1 1.45561 1.11767 -4.16455 
4875 1 -2.94441 5.06758 -2.52247 
9418 2 -0.117393 1.44626 -1.74606 
4363 2 -0.470518 4.50711 -2.24007 
434 1 1.14603 1.44942 0.425987 
4812 2 -2.11437 2.82057 -0.252415 
1950 1 0.538605 0.551109 -6.52572 
5666 1 3.70247 0.644811 0.107875 
2484 2 5.29178 2.75628 -0.838451 
8524 2 2.30756 3.46536 -0.797973 
893 1 10.1551 4.668 -5.21416 
6235 1 7.23998 0.268826 1.37158 
6241 2 4.68326 7.05011 -2.00268 
280 2 8.20828 2.47316 -0.174051 
6672 2 11.1333 1.0632 -1.5305 
8743 2 9.64904 5.04585 -1.47788 
3907 1 5.79545 -2.55928 0.573531 
6650 1 15.0644 3.68356 -2.3184 
4251 1 15.4735 6.14303 -1.60506 
8834 2 16.2558 3.43627 0.113529 
8793 1 17.2758 6.10314 -3.25108 
9056 2 -1.33762 6.99712 -0.345133 
3232 2 3.67837 -2.45056 -1.04156 
416 1 -2.26032 8.03098 -2.69256 
5494 1 -0.390447 8.93867 -1.43859 
4350 2 1.224 10.0895 -3.1643 
9982 1 1.77544 5.89098 -1.03707 
1944 1 3.6162 8.96577 -3.5155 
6153 2 2.655 6.62862 1.43946 
7530 1 3.9042 9.8045 0.62733 
5558 2 5.61017 9.61559 -1.8689 
7630 2 7.93056 6.41407 -3.07498 
6201 2 8.9722 9.85948 -2.87459 
511 1 7.69174 8.00862 -0.920312 
2237 1 5.34757 7.84907 0.846549 
4334 1 13.8317 8.12702 -1.60005 
6487 1 10.1204 7.58228 -1.06981 
8980 2 12.8 5.73821 -0.994021 
4667 1 10.4602 10.0993 -0.624208 
853 1 15.0109 9.22208 0.79679 
8829 2 14.3446 5.66052 -4.34574 
8439 1 17.4248 10.1574 0.33757 
1494 2 16.8569 8.58626 -1.84126 
6133 2 -2.33547 9.59918 0.296513 
1222 1 -2.41498 12.6107 0.719376 
7727 1 -1.29443 15.8605 0.716125 
2627 2 -0.616723 13.1076 -1.63121 
7136 2 4.06269 15.0043 -3.60465 
9276 2 2.02941 8.45265 -0.878206 
6625 1 4.43626 11.5672 2.85103 
9030 2 10.5791 12.2202 -4.09962 
4606 1 5.75035 12.6842 -3.12138 
7332 1 9.31984 12.0038 -0.892873 
3357 2 6.58775 10.6125 0.848773 
7598 1 12.1732 9.86216 -2.56222 
8882 1 8.6419 9.22778 0.471978 
8676 1 13.6711 11.8316 -3.72368 
8814 2 14.9722 10.758 -1.25743 
761 1 10.6407 14.1264 -0.586926 
7733 1 16.8281 10.5561 -3.34881 
5463 2 17.7348 12.8874 -1.40994 
4656 1 0.158312 17.7768 -0.548525 
448 1 -1.52147 15.6557 -1.46126 
1712 2 -2.84493 17.8271 -2.45622 
4394 2 17.871 1.49204 8.1672 
110 1 -0.387146 -2.96554 -0.990283 
9711 1 1.35739 14.9159 -3.66304 
24 1 6.96602 15.8404 -4.32358 
5251 2 4.35904 16.4167 -0.207741 
2243 2 1.18997 15.6277 -1.12837 
4152 2 6.69208 17.1026 -2.0427 
2199 2 6.89938 14.333 -0.981435 
4789 1 8.83725 15.8246 -0.688409 
9688 2 10.6986 15.4659 -2.66872 
4433 2 13.0008 13.442 -2.06958 
753 1 12.8289 16.8329 -1.85565 
9846 2 17.7454 11.0712 4.07909 
4057 2 11.9667 16.1842 0.712976 
5777 1 17.0538 15.1627 -1.73141 
8128 2 18.0599 -2.08105 5.24819 
821 1 18.0151 14.603 0.754164 
8527 2 16.6833 8.61212 3.29029 
3220 2 -0.35505 14.8552 -6.75921 
1677 2 0.680883 -1.73894 3.08947 
6072 1 8.21982 -2.58053 -6.86704 
4614 1 6.32573 17.8173 -5.07416 
8658 1 -1.05024 -2.22227 6.82387 
4083 1 4.39647 -1.23309 1.6496 
6342 1 2.98486 -3.04696 1.54834 
172 2 5.84559 1.26278 4.53779 
4351 2 6.28917 -1.72003 3.14471 
8178 2 8.37383 1.54705 5.22311 
1011 2 8.83322 0.0413988 3.15294 
9617 1 9.83467 -0.564388 6.59042 
3282 1 13.7835 -2.07518 2.9876 
6347 1 10.6429 1.19669 4.56071 
6318 1 12.5173 0.596357 2.86402 
1170 1 -3.06361 4.93425 1.16106 
2938 2 6.27512 15.6101 -7.56963 
61 2 14.9957 1.45074 2.9158 
7795 1 15.4863 -0.918852 4.42619 
8445 2 16.4016 14.4867 -7.25021 
8041 2 -2.40425 13.0289 -6.60779 
2739 1 3.59541 -2.90024 -3.95543 
9180 1 16.9743 -0.583382 2.5916 
2919 1 -0.196232 1.52939 2.12287 
3893 1 13.5397 3.89519 9.77383 
8808 2 -2.77345 17.4698 -5.5384 
160 1 4.29837 5.413 0.0219574 
1671 2 1.35232 3.28513 4.28216 
9404 2 -0.0204383 4.1962 1.25422 
800 1 3.62064 3.85627 1.69342 
91 2 2.72415 0.358352 2.59629 
8914 1 8.53923 2.94705 2.32556 
5489 2 5.71846 2.46993 1.80967 
8364 1 4.0103 3.15844 4.21685 
600 2 7.14289 5.45924 0.405216 
8378 1 6.73144 3.67496 4.54132 
4124 2 13.063 3.26432 4.26908 
6910 2 10.8821 2.47319 1.68464 
5283 1 11.052 5.41544 1.56097 
5392 1 8.09723 5.03753 2.69017 
5234 2 10.3519 4.42928 4.11654 
2157 1 13.5441 4.67225 1.76711 
9579 2 13.2958 3.15772 -0.0696792 
8896 2 15.5435 2.06096 5.9276 
8306 1 15.6458 4.43721 2.26911 
3809 2 1.68625 11.9257 9.27678 
6762 1 16.9949 1.75793 -6.51827 
3532 1 0.09271 5.8007 3.72517 
5918 1 -1.45319 5.78115 4.92229 
233 1 -1.21126 10.8084 2.27654 
6212 2 0.71803 7.6493 5.43056 
9377 2 -1.73137 9.32326 4.35809 
1668 1 15.6879 2.71557 8.97473 
4674 2 0.104428 8.86661 1.63142 
6994 1 2.48106 6.43948 3.74672 
9718 2 2.9036 8.85354 3.12259 
2148 2 3.38712 8.39333 6.40939 
5128 2 5.50467 5.5183 2.72558 
8089 1 5.23694 9.09645 2.7433 
7725 2 7.60231 8.08143 2.71182 
5756 2 12.2482 8.12945 0.419707 
9491 1 9.67497 9.55162 2.57412 
27 1 9.54015 7.13494 1.35336 
9407 1 14.4866 9.0723 3.93363 
1024 1 12.2215 9.9259 3.11514 
5245 2 15.552 6.63043 0.947269 
4454 2 13.7724 11.6823 4.01257 
6714 1 15.5705 10.992 1.74369 
1942 2 6.20294 -2.95724 6.63778 
9875 1 0.832281 11.1059 -0.529519 
1488 2 0.178087 13.9776 1.46416 
6004 1 -0.101047 14.8612 4.97802 
3946 1 1.85359 10.7263 1.28945 
7766 2 3.9132 12.133 -0.490095 
2012 1 0.571064 12.4472 3.66435 
5485 2 3.20495 11.5144 5.45409 
7418 1 5.41196 10.3513 4.79025 
3696 2 6.82152 13.0302 4.39737 
1491 2 4.62768 14.8633 2.84939 
8187 1 7.43539 10.5563 3.42423 
7760 2 8.07899 8.93352 5.40308 
1301 2 11.0543 12.6285 4.08703 
1284 2 9.07961 12.3356 1.67942 
5270 1 6.1063 13.2865 1.63201 
1890 1 16.9802 12.6718 1.34452 
6598 1 14.2314 14.4789 3.01629 
9977 2 12.3843 11.6629 1.03034 
5679 1 16.1972 14.0748 3.51969 
7952 2 0.619596 16.4483 2.81378 
2409 2 -1.86324 13.5423 3.31693 
8693 2 -1.86711 17.7691 2.22971 
8938 1 16.7309 -2.61289 1.44201 
6844 1 2.65359 15.189 1.35671 
2264 1 3.15674 4.46461 -7.52003 
4649 1 2.922 12.8227 1.80111 
9183 1 4.5646 14.3065 5.56119 
7816 1 9.31824 9.18351 9.81861 
4965 1 6.6855 16.3737 0.688577 
7508 1 9.83382 14.9137 4.46404 
8830 2 6.33342 6.64226 -7.59232 
8110 2 9.24829 15.2794 1.79711 
1794 1 12.4653 15.924 3.23514 
1910 1 12.0723 13.8383 1.89536 
5512 2 15.0958 14.2301 -0.0879758 
1851 1 14.9952 16.1265 1.99947 
6943 2 15.5879 15.6612 5.2943 
3129 2 10.8741 11.903 9.57501 
369 1 6.29663 7.91795 8.97526 
329 2 -1.70239 -0.76137 9.48512 
3664 2 0.928321 -0.64916 6.01759 
3487 2 3.60951 -2.00729 4.57743 
8780 1 4.85954 -0.379482 6.11473 
563 2 3.10841 1.43261 7.87324 
5687 1 3.11783 -1.02274 8.5974 
2542 2 5.66612 -0.675204 8.66467 
2985 1 8.62163 -1.62146 8.36436 
8056 2 -2.0009 3.28257 3.42429 
3426 1 7.33481 -0.71093 5.63403 
6940 2 8.49001 1.2805 8.50866 
8612 1 13.4362 12.2823 9.51246 
1804 2 13.0731 -0.377481 5.94587 
6703 2 11.1925 -0.518577 8.89868 
9410 1 11.2199 -1.69522 4.68724 
8947 1 -3.01336 15.2474 8.53986 
3374 2 16.9646 3.11307 -4.16336 
9046 2 12.941 -0.0620782 -7.10675 
9938 2 12.4667 2.19636 8.27721 
4579 2 16.089 -0.7954 7.22765 
5809 2 -3.1166 1.22327 6.25149 
5631 1 -1.04725 0.557151 4.34497 
5117 2 0.678439 3.28265 -7.52599 
2844 2 -0.242297 2.31907 6.38404 
5281 2 12.6279 14.8158 5.53999 
6467 1 3.19524 1.35602 5.18869 
3032 2 3.5578 5.466 6.16213 
1843 1 1.90598 3.63607 6.79708 
1533 1 6.0486 4.74088 6.10854 
7398 2 6.27427 4.98696 9.2365 
4677 2 17.7591 4.50818 7.27494 
7092 1 8.1455 4.14876 6.89704 
5832 2 5.2733 2.55532 7.12982 
1297 2 10.0244 4.51923 9.39295 
1557 2 16.8913 17.0865 0.0807626 
1673 2 10.2775 3.16442 6.34552 
9733 1 11.9636 5.65513 8.42484 
8921 2 12.7978 6.6522 3.47015 
6052 1 10.52 5.96012 6.6453 
8349 1 12.2889 5.01779 6.10995 
9403 2 14.637 4.33912 7.65555 
4732 2 15.9448 5.18714 4.64364 
8514 1 -0.0897584 9.5815 -7.10775 
7904 1 -0.363808 5.56038 7.25449 
8984 1 2.65123 -3.07529 7.52838 
4267 2 1.18325 7.28052 8.54272 
5444 1 4.53974 6.97924 8.39316 
5929 1 0.926945 10.3386 3.51454 
8130 1 6.03945 7.55996 6.63059 
8532 2 11.3304 15.0641 8.0644 
1163 2 8.41552 5.8467 5.37018 
8971 1 5.16412 7.58024 4.52873 
849 2 8.74505 7.16511 8.14518 
9787 2 9.11795 13.2467 6.53132 
4991 2 10.6024 8.21706 4.79662 
4026 1 9.24717 10.4372 7.68357 
1728 2 -2.67576 6.98587 2.64919 
5402 2 11.6644 8.60032 8.1252 
1330 1 12.8727 9.48435 5.86443 
4491 2 -1.826 1.97064 -7.20637 
1479 2 15.351 7.59784 6.50509 
5976 1 15.549 17.1239 7.63856 
5108 1 14.6324 7.06947 9.1161 
4041 1 17.3167 7.06291 7.97503 
3543 2 16.1447 9.21346 9.34247 
7318 1 -1.1775 12.8943 8.80146 
4727 2 -1.09219 11.8378 6.26451 
4876 2 -0.207389 9.59601 8.45393 
9618 1 12.1739 17.9839 7.47678 
2458 2 11.2155 17.3713 5.03736 
3452 1 1.34259 10.0398 6.21141 
2736 2 4.94663 10.0275 7.48002 
6280 2 1.69474 13.7943 6.58328 
8076 2 6.97419 10.2467 9.6696 
9840 1 7.51202 11.0834 6.82568 
789 2 4.77361 12.7212 8.95018 
5000 1 16.8161 14.6899 7.87594 
3307 1 11.5353 11.0092 6.95739 
2383 1 12.9771 12.8978 6.92427 
51 1 9.81775 10.7117 5.67481 
9140 2 14.2037 9.91734 8.12952 
709 2 -2.94331 -2.56619 -7.25131 
5062 1 15.6094 10.2583 5.83965 
1088 2 15.6565 12.2887 8.55052 
8849 2 15.7208 12.8551 5.60605 
8234 1 12.9033 7.10401 5.97216 
3396 2 -2.26263 16.3488 4.7565 
1694 2 -2.75817 8.12679 9.64759 
284 2 -0.0126639 15.7428 8.18204 
1310 2 -2.04344 2.13373 9.18533 
3045 1 -0.732537 5.06419 -6.47125 
2933 1 1.95292 14.1712 3.79677 
1884 2 2.97883 16.7262 7.50433 
9436 1 8.35231 16.0477 7.87612 
368 2 6.3668 16.4978 5.87625 
9315 2 5.85803 15.4173 8.92227 
1968 1 6.66106 13.8914 6.8253 
2246 1 7.61706 15.5636 3.57019 
595 2 17.7226 9.11968 -5.56196 
1092 1 17.0842 15.9479 -4.93331 
5347 2 0.961816 0.571895 9.21875 
1295 2 0.0470765 -0.699764 12.0928 
2470 2 17.0436 1.59074 22.7619 
8233 2 -1.95229 0.488981 13.9281 
1858 1 -2.04861 -2.72707 13.2245 
2433 1 2.58291 -2.33303 12.0126 
6037 1 2.93019 -1.3365 13.9034 
987 2 3.71106 -0.358362 11.2655 
7642 1 4.35658 -2.76129 10.2464 
279 2 7.34091 -2.4922 12.5146 
9926 2 10.5015 2.07162 12.8953 
3763 2 7.57124 0.0633544 10.7242 
8083 1 9.41008 -2.27315 11.1913 
7073 2 8.63979 -0.254404 13.7564 
6046 1 10.3061 -0.387371 11.7223 
5637 1 12.1879 1.44643 14.7453 
5471 2 13.0664 2.28575 11.8726 
6556 1 11.7304 -2.61395 12.036 
6175 2 17.9935 11.1252 20.5014 
6372 1 15.2372 -1.61926 11.4664 
6468 1 16.2442 -2.09152 13.7817 
5752 2 6.62053 17.8706 22.2972 
1816 2 17.4929 0.605988 11.7985 
693 2 -1.20037 2.59625 12.3314 
1937 1 1.29436 6.22721 12.5283 
4133 1 1.69651 3.24359 12.2522 
6390 1 3.92396 2.9049 12.0256 
8670 1 8.02923 16.4028 26.9266 
3941 1 5.70485 4.06236 11.9001 
9415 1 -0.848395 6.96686 11.4916 
2758 2 5.33637 15.0019 22.885 
903 2 5.99003 1.86409 13.0617 
3951 1 9.81974 4.41441 12.4456 
2228 1 10.8507 1.76511 10.1868 
5045 1 2.58659 -2.92228 22.1523 
6378 1 11.9243 4.60226 11.0809 
7781 2 13.8116 7.93929 11.277 
7976 2 14.4819 4.83715 12.315 
4608 1 9.99822 -3.01437 18.0133 
9800 1 15.5551 2.70682 11.2241 
8179 2 16.3409 3.05272 14.275 
6240 2 16.3778 5.2108 10.2215 
5143 1 13.5833 3.55876 15.0311 
2134 2 12.6291 16.9507 24.8937 
2338 1 -2.0877 16.1849 18.4683 
1327 1 -3.09126 6.08839 11.7316 
1534 2 17.655 5.49551 18.7264 
5342 2 0.966463 9.17082 10.8773 
7027 1 18.044 8.07204 10.3204 
3706 2 17.463 17.7956 12.3175 
6597 1 17.0178 6.47193 15.8072 
142 1 5.54932 7.72074 13.9269 
997 2 -0.0908049 8.25832 13.7108 
2417 1 3.95738 9.59589 12.9406 
9728 1 2.65014 7.78743 12.2394 
7751 2 7.17083 5.4356 13.3474 
6980 2 7.10225 8.42561 11.8395 
1442 1 8.16058 7.35866 15.1525 
3110 2 10.5727 6.82027 11.0029 
5788 2 11.3907 5.72346 14.0222 
9677 2 13.498 8.85171 13.8709 
5789 2 10.1899 9.01137 13.0728 
7650 2 17.4939 6.04615 12.9161 
9319 1 13.7512 -2.264 13.5815 
3688 1 15.7433 7.53659 13.7155 
4326 2 14.5291 9.09068 16.4814 
1097 1 -0.624211 10.722 13.6409 
8272 2 0.9167 14.6944 12.4461 
7638 2 -2.13838 11.1642 10.551 
9839 2 -2.6388 13.0716 13.5659 
2089 1 0.254951 12.071 11.4803 
7206 1 17.0511 0.671031 26.1405 
5853 2 3.13002 12.7047 11.8339 
4936 1 1.94793 10.2531 13.2686 
5058 2 4.52796 11.1788 14.8262 
1788 1 5.54227 11.6609 12.0907 
1066 2 7.2122 10.028 14.4608 
3828 1 9.10041 10.8351 11.8081 
4552 2 7.9955 13.0533 12.7223 
115 1 5.30384 2.71262 10.3294 
5374 2 11.3725 10.5352 16.8668 
3274 2 15.2311 10.8289 11.6057 
7152 1 10.8938 12.449 12.7813 
1265 1 10.9174 17.4205 17.8903 
8302 1 17.2861 12.7314 12.315 
5138 2 1.55019 17.0766 10.2678 
7102 1 9.81934 17.4043 15.5184 
6304 1 -3.0982 15.5043 12.2886 
2615 2 -2.33044 13.7202 16.6889 
652 2 -1.80658 16.0144 14.5665 
8414 1 -1.02511 14.16 11.0226 
810 1 5.98383 13.821 10.9959 
1808 2 4.19533 15.4342 11.2603 
7043 1 -2.9462 12.12 27.4148 
5179 1 -1.39533 16.175 26.1477 
3687 2 15.4564 -1.44391 26.8929 
9258 1 16.346 2.14805 19.1373 
919 2 -2.81688 7.68691 17.4531 
7668 2 7.97385 15.8226 11.5698 
2651 1 16.458 2.93078 26.6138 
3780 1 0.657953 14.8312 25.8062 
2493 2 10.8345 14.1115 10.9233 
4513 2 13.37 13.9169 11.8162 
5455 1 13.7308 15.687 13.914 
5287 2 0.772339 17.5036 26.9717 
9423 1 15.8607 16.7038 14.1165 
8337 2 15.2993 15.644 11.3362 
1079 1 0.637581 -1.29626 14.9534 
3744 1 0.806902 -0.030679 17.1081 
9754 2 -1.96702 1.16823 17.7464 
2232 2 4.94805 6.4279 11.1386 
2900 1 5.39662 -0.844239 13.3685 
106 1 7.64748 17.4411 24.9002 
3732 2 3.20155 1.75856 16.6776 
6457 2 2.75205 -2.31182 16.7624 
2891 2 10.9065 -2.84375 20.7447 
4186 2 7.91017 -1.59519 17.7359 
7819 1 -0.495577 15.6693 24.2362 
2270 2 10.9759 0.498343 16.981 
9331 1 11.4914 -1.39492 14.3662 
5452 1 9.22452 -2.58531 15.4105 
5760 2 3.50415 -2.27094 19.9739 
3145 1 10.0631 12.0315 24.9401 
9513 2 13.5287 -2.28602 16.2335 
3913 2 14.809 0.829015 13.6173 
9974 1 17.4937 15.9369 23.5872 
9673 1 0.475843 17.5466 12.9846 
2138 2 -1.20406 4.92096 13.7512 
3509 2 -0.181426 2.09845 15.5464 
1440 2 -1.13701 4.55195 17.7086 
3473 2 5.9884 14.7213 26.8369 
6013 2 2.41386 1.26567 14.0453 
2210 1 1.23575 3.7327 16.7905 
1081 1 3.32149 4.53433 16.2829 
2163 1 4.36571 -0.113203 15.2059 
3675 2 3.89968 5.27255 13.6499 
8258 1 1.3449 5.26524 14.8714 
603 2 6.60324 0.817863 16.1655 
5515 1 8.03598 2.92384 14.4473 
1202 1 5.62381 3.42806 15.8734 
5425 2 4.22773 1.54687 20.2909 
3924 2 7.95677 4.23736 17.0594 
4688 1 9.06483 5.41167 15.5588 
3730 2 8.827 7.33378 17.8875 
7620 2 10.6859 3.37024 16.0841 
8545 1 13.6635 0.0864799 15.7297 
9435 2 13.0357 2.83829 17.1162 
8845 2 12.003 1.21883 20.1137 
405 1 9.82565 3.12735 18.7425 
5670 2 14.4535 0.639283 18.7102 
3383 2 14.7719 4.39755 19.5092 
6030 1 6.34874 16.9258 13.4715 
3717 1 16.1966 7.44404 11.0534 
2740 1 -2.13719 8.869 12.169 
946 2 1.46233 10.6167 15.7554 
981 1 1.54281 7.47769 16.6922 
5467 1 -0.876848 9.62796 18.8857 
949 1 -0.930358 6.63447 16.0658 
353 1 3.98158 6.62504 17.7714 
3659 2 3.15779 7.80338 14.8052 
7082 1 4.7671 8.63411 16.9192 
6084 2 6.08113 6.66314 16.1086 
8789 2 10.1362 8.92257 19.5061 
836 2 10.7392 7.99099 16.1159 
9308 1 13.6482 6.69309 14.7857 
8791 1 12.5044 8.52916 18.5904 
7893 1 10.2218 5.01884 17.819 
8388 2 12.7297 5.7145 17.2885 
5054 2 16.0666 3.03354 16.8185 
2923 2 15.0591 11.5033 19.6445 
2658 1 7.74137 5.99433 10.7348 
208 2 17.5268 9.99661 17.3382 
6604 2 0.521949 13.1868 15.0361 
2160 1 -0.206643 8.77343 16.6691 
2475 1 -1.84401 11.4037 15.5402 
8925 2 5.59119 14.2277 13.5278 
6699 1 2.91123 13.4966 14.4194 
7701 2 3.29727 13.3341 16.988 
5783 1 4.82511 14.9717 17.089 
2455 2 9.62828 12.0008 15.1619 
2894 2 5.44528 10.7788 17.9462 
1948 1 6.79211 13.324 17.6881 
9581 1 7.09564 12.7534 15.1951 
3297 2 8.58308 11.4578 17.8584 
5907 1 12.3343 11.6174 14.8493 
6181 2 13.5608 13.8412 19.0931 
6054 1 16.0296 9.81934 14.2796 
7629 1 14.0948 11.6963 17.0406 
2207 1 16.8977 12.2056 16.3802 
287 1 16.1705 14.4136 18.6694 
3724 2 15.1999 12.0193 14.0742 
3848 1 -2.23592 7.12706 14.2863 
239 2 2.19199 5.64513 27.1222 
8278 2 16.5885 -3.12061 16.4899 
1036 1 0.296522 14.5658 17.3791 
3020 2 -0.21308 5.18922 10.0604 
5226 2 4.10678 9.40753 10.0737 
7635 1 3.63985 15.9204 14.0122 
417 2 1.29822 16.5139 15.3522 
7654 2 2.8052 16.2692 18.4748 
8009 2 4.43995 17.612 15.9624 
684 2 6.88519 15.7419 15.7364 
4391 2 7.44706 16.8175 18.9515 
5198 2 10.3249 17.4964 10.0731 
5213 2 9.3196 14.9159 17.1833 
1826 1 9.40617 16.8624 24.5466 
6359 2 10.6473 14.7058 13.8131 
5520 1 12.1786 15.3289 17.6583 
3379 2 3.02619 4.27433 9.96947 
8460 1 0.427241 13.3517 23.5503 
7962 1 -2.01713 2.77016 19.9543 
5354 2 14.1507 14.3054 16.4583 
2420 1 16.1165 16.3038 16.7588 
9291 2 17.383 14.6579 14.8021 
9964 1 15.2232 14.3057 26.0247 
3008 1 -1.19719 0.0504006 19.855 
5300 2 -1.48838 -1.14094 23.4653 
7660 1 15.4962 -2.57036 21.7238 
6352 1 4.6401 16.5074 25.291 
8959 2 1.51993 -0.385206 21.3887 
8761 2 0.77615 -1.82439 18.8233 
1799 2 1.61017 3.18336 21.6231 
5096 1 -2.10704 9.09277 15.4709 
782 1 4.8887 -0.248777 17.8372 
7329 1 4.99966 -2.46163 17.2696 
759 2 6.16598 -0.703565 20.7048 
4263 2 9.02446 12.3899 27.2933 
2621 1 -2.78854 16.6237 23.8987 
9602 2 9.50655 0.314234 21.0539 
3453 2 13.3786 -0.83035 21.3399 
3949 1 3.33049 13.4785 26.4058 
998 1 10.7673 16.4305 26.6071 
9186 2 16.4852 -0.0107147 20.0905 
9655 1 12.5434 -1.41491 19.0044 
5087 1 14.9582 -1.83933 19.0011 
2752 1 3.01579 8.14646 27.3004 
6021 1 -0.149386 4.56004 20.0494 
8042 2 0.736779 2.0711 19.2096 
5053 1 -0.616036 1.06881 22.1383 
8657 2 2.44947 4.54851 19.1307 
9610 1 3.63663 4.99407 21.4772 
8340 2 4.89251 4.13319 18.4542 
8828 1 7.56741 1.52225 22.0493 
9608 2 5.37723 2.19299 23.0412 
9284 2 7.58819 2.21736 19.4059 
1624 1 7.58645 5.11595 19.5059 
4226 2 8.01398 4.04947 23.2664 
9295 1 13.403 4.28891 21.9991 
1703 2 12.2799 1.76293 22.856 
6409 1 12.2488 4.30785 19.1825 
7128 1 13.2244 6.28469 23.094 
3791 2 14.9625 2.88881 23.8704 
1706 1 14.8128 1.90341 21.5762 
8952 1 16.5786 3.56192 21.002 
4386 1 15.2917 5.79213 24.1628 
1449 2 0.198828 7.41649 19.8925 
1114 2 1.56935 6.15144 22.5286 
272 1 -2.46361 7.70386 20.3556 
6799 1 -1.4449 5.95175 21.3899 
5688 1 8.97714 17.9732 20.2898 
6971 1 3.8053 7.09218 20.0276 
6313 1 2.59779 8.91391 21.1378 
5407 1 7.73401 9.32429 20.3347 
4935 2 6.29293 7.28416 19.167 
7241 1 5.72986 3.91525 21.2234 
6092 2 8.16343 6.91053 21.4697 
730 1 11.7108 9.79226 21.1206 
7966 2 10.3529 3.56324 21.1003 
5188 2 11.2674 6.47156 20.2696 
8689 1 15.0864 6.44196 18.2967 
679 2 11.9936 9.1583 23.7629 
6577 2 16.2649 5.86308 21.9168 
2279 1 15.1952 5.11494 15.9819 
1071 2 16.5753 8.57898 19.7815 
1178 2 13.5289 7.81198 21.2989 
4975 1 -0.0286543 11.3006 17.6288 
7261 2 -0.387751 12.9944 19.5422 
4760 2 -2.23031 11.1085 20.6329 
9870 1 0.514128 10.4975 20.3832 
6622 2 -1.70753 13.5904 22.2035 
5230 1 3.56613 12.4756 19.8834 
5378 2 2.83635 9.29955 18.3553 
6250 1 4.85165 9.8829 20.4933 
1262 2 2.16042 12.0343 22.1474 
2886 1 4.79588 12.6571 22.0577 
7017 1 12.6892 11.0546 19.2146 
3746 2 7.15467 11.7543 20.7418 
8168 2 5.50291 14.8305 19.75 
3056 1 7.88031 13.2253 22.7144 
8157 2 10.7025 12.405 19.8215 
4168 2 12.9881 11.5673 22.6138 
2427 1 15.1819 10.181 21.9566 
1255 2 15.4119 13.6952 21.5797 
1863 2 12.3479 16.8315 11.5349 
5132 2 14.2753 -2.79556 23.9563 
4645 2 17.0741 10.8082 24.4456 
6712 1 12.177 10.5069 12.4657 
1252 2 0.777378 17.678 21.5242 
5032 1 0.114738 16.4269 19.4318 
1366 1 0.0143275 15.0804 21.5261 
3332 2 -2.36342 16.6 21.2664 
5375 1 13.132 15.9143 27.3131 
7941 1 8.40877 17.0971 13.6048 
8435 1 3.62094 16.7672 21.2414 
9888 2 2.17552 14.3898 20.6667 
1689 1 17.6799 -1.83336 22.2359 
5015 1 6.52429 -1.82587 15.3072 
3377 1 7.77489 15.6064 21.9002 
9506 1 8.1163 14.4418 19.399 
5490 2 9.90336 14.6384 23.9693 
4697 1 13.2939 16.1829 20.3679 
1050 2 10.3835 15.2282 20.9942 
4195 1 13.8454 17.4894 22.1733 
8885 1 16.7923 14.097 24.2683 
144 2 15.9605 16.5094 20.614 
6361 2 14.0908 17.596 17.9837 
5486 1 12.7251 14.563 22.0661 
948 1 17.7771 14.2977 20.3535 
543 1 0.505643 -2.86047 25.0534 
7450 1 -0.681097 0.235261 25.6013 
5221 2 14.5184 0.440524 9.96978 
2249 2 -1.01522 17.7323 16.949 
6357 1 4.31874 0.576845 25.2674 
1322 1 4.18349 -0.803622 22.4807 
7471 2 2.05551 -1.00236 24.0326 
8543 2 3.81472 -2.62378 25.8094 
6265 2 1.86759 16.43 24.3225 
4320 1 9.42185 3.37543 26.0244 
5026 1 7.4062 1.77559 25.4817 
1104 2 6.67412 -0.415391 23.9896 
5689 1 17.4986 16.5381 9.92462 
3550 2 16.3567 17.1871 25.8695 
7984 2 9.52142 1.5821 23.8368 
6009 2 11.5482 1.98125 25.8597 
8807 2 9.27063 -0.597843 25.5308 
5715 1 14.501 1.18197 26.9753 
4062 1 -2.47988 9.46484 22.6312 
8539 2 14.7226 15.35 23.4266 
9162 2 -2.07851 13.5678 25.459 
3617 1 14.4691 0.0920856 24.6074 
6972 2 12.1854 -1.91727 26.4497 
6032 2 -1.27626 2.40876 27.042 
4927 2 0.625974 2.1318 24.4883 
2583 1 11.0067 17.3952 22.7616 
9482 2 -1.4859 3.54587 22.3373 
8275 1 2.891 1.80253 23.7205 
1156 2 16.5973 -0.176594 16.8947 
902 2 4.91842 3.40714 26.0919 
9079 2 3.37174 4.33701 24.3047 
7375 1 2.79168 2.50087 27.0078 
3604 2 10.5067 7.13178 25.7415 
922 2 5.18216 6.83039 22.5775 
2280 2 7.63416 5.44721 25.3819 
741 1 0.293634 -2.94591 22.8201 
9861 2 11.3195 4.65481 24.4553 
9095 2 4.24808 -0.35632 27.5216 
8102 1 10.2972 6.26275 22.9299 
7041 2 16.997 -2.24979 24.5879 
7832 2 11.0333 -1.09695 23.747 
4295 2 14.1964 4.35561 26.4458 
9765 1 15.9143 8.07448 23.7335 
7227 1 -2.19983 -3.02027 10.824 
8329 2 -0.135943 8.30647 26.1899 
2382 2 0.294999 9.54593 23.383 
4367 2 -1.53398 6.98369 24.1386 
580 1 2.01363 7.53618 24.4641 
7273 1 0.157878 4.90471 24.6298 
383 2 4.64021 6.39093 25.5517 
8887 1 17.8473 9.40137 12.9424 
3674 1 7.11066 8.02871 25.4948 
1171 2 8.74065 9.23899 24.3038 
2945 2 7.70758 10.2581 27.4557 
9629 2 13.2624 7.35808 25.2162 
6302 2 10.6203 10.0158 26.5755 
8875 1 17.3444 9.25602 22.5524 
451 2 17.2566 5.35 25.7304 
3408 2 6.77829 -1.38099 26.5594 
5023 1 11.976 9.74406 10.1967 
7275 2 15.7248 8.46451 26.2938 
1021 1 7.16616 15.5112 24.4219 
7143 1 -2.68 9.93286 25.2151 
2234 1 -1.44042 11.4401 24.0704 
3965 2 -3.09507 10.5855 17.9882 
924 2 -0.513902 11.5163 26.5941 
7547 1 12.9137 8.91747 27.3582 
5799 2 2.01731 10.5282 25.306 
3106 1 2.71431 14.0941 23.6911 
1610 1 4.39836 12.3785 24.287 
6088 2 5.91709 10.0721 22.6367 
6433 2 4.70233 9.41314 25.58 
2062 2 9.94462 11.4164 22.3912 
4891 1 10.0439 8.53835 22.07 
7325 2 6.90842 12.3988 24.8649 
4566 2 13.5383 10.9774 26.0178 
8161 1 15.0923 12.385 23.9016 
9554 2 12.4463 13.5071 24.6994 
2360 1 14.4176 9.71681 23.9342 
2188 2 -2.58606 1.57042 24.5533 
5645 2 -2.1008 -1.66145 15.696 
6087 2 -1.25602 5.55343 26.7978 
7290 2 8.45773 -2.22505 22.3306 
3454 1 17.421 3.52321 11.7068 
1119 1 17.5115 14.9585 12.225 
926 1 -0.938524 -2.11012 20.9824 
5632 1 -0.906369 16.9708 10.768 
8269 2 8.1168 2.92449 10.9319 
6658 1 0.536834 -1.60081 26.8645 
5086 1 -1.75863 3.85799 24.9315 
5412 2 12.574 17.4135 15.35 
1606 2 17.5042 -2.65607 19.5679 
8276 1 10.5434 17.6368 13.1432 
2106 1 -0.183296 -3.12637 16.3563 
6738 1 6.48907 17.7091 10.7901 
7233 1 -1.62999 1.12799 29.2796 
1165 2 -0.415158 -1.11644 31.9224 
2432 2 1.05142 0.714144 28.0419 
3811 2 -1.44418 -1.17608 28.273 
9637 1 10.1259 -0.420881 44.6495 
970 1 1.14035 -1.27417 29.7188 
1857 1 16.3391 -2.12376 40.4949 
4849 1 5.60739 -1.50668 29.4088 
1208 2 -3.00398 -0.726363 36.041 
2582 2 12.1347 6.10926 44.5214 
1641 1 6.35952 0.204866 31.0273 
5396 2 9.66354 1.58524 32.0388 
6709 1 6.03295 -2.50622 32.016 
9207 1 -1.98096 11.9261 30.1702 
8957 1 10.3799 -0.745231 29.0921 
2963 2 7.96789 -2.83699 30.7844 
5601 1 11.9708 1.94249 30.2373 
2733 2 12.9384 -0.447929 30.174 
3483 1 17.7545 -1.39958 29.5107 
2990 1 2.69871 17.3136 29.1122 
6737 2 17.1847 4.32746 34.4334 
4143 1 16.323 0.138734 31.0613 
1642 1 14.8818 14.5708 28.7987 
8638 2 -1.64123 4.16429 29.1321 
9392 2 -2.43111 1.01888 31.7641 
3693 1 -2.03799 10.0906 44.203 
9469 1 16.9665 16.5632 32.8737 
9685 2 0.265658 1.25221 30.9108 
7065 1 1.05268 3.46022 28.4434 
1498 2 3.55306 0.744291 30.6171 
923 1 1.25622 5.16091 30.4433 
4121 1 2.21095 13.622 41.9007 
9476 2 6.41144 1.59102 28.0251 
8472 2 6.44774 3.85557 31.0518 
8788 2 14.2345 2.12874 31.3473 
4946 2 9.92847 1.83651 28.3741 
1275 1 10.9504 3.61265 29.9201 
1923 2 17.2577 3.10218 30.8784 
9939 1 15.8872 4.06253 28.6761 
942 2 3.75842 3.53848 29.1657 
2836 1 17.1452 5.71968 30.7394 
5946 1 13.7017 2.73109 28.483 
8133 1 12.2858 0.535223 28.1537 
3429 2 16.0725 0.995112 28.8833 
6666 1 5.17627 17.9543 37.4397 
1607 2 0.0713126 7.1813 29.3258 
3533 1 8.32215 17.3063 37.855 
864 1 3.9845 4.10922 31.6262 
9616 2 3.15814 6.50302 29.7954 
2330 1 1.35479 7.41043 31.6175 
5258 2 3.1037 9.60211 31.0648 
7748 2 -2.05194 6.97158 39.4678 
2284 1 5.55109 7.2709 30.9739 
9452 2 8.31237 6.21294 30.4704 
9405 1 5.15422 5.26771 28.1081 
6543 1 14.6463 17.1192 42.8943 
3629 2 6.80231 9.19397 30.4579 
5638 2 13.5626 4.93096 30.2947 
6256 2 8.05089 4.16104 28.2541 
5900 1 10.1835 8.46752 28.3299 
8452 1 12.0656 8.44574 30.4179 
6124 1 10.9632 6.48755 30.5711 
6743 2 15.9656 6.57284 28.3582 
6969 1 14.8299 7.24912 30.9145 
826 2 0.454038 16.434 40.6355 
2045 1 9.27389 16.7735 44.8789 
5326 2 1.30968 9.92628 28.7742 
7956 2 -0.538901 13.9739 31.4007 
2599 1 -0.000690426 12.4189 29.2611 
7913 1 16.941 -0.916636 34.996 
6289 1 8.55582 7.45477 27.7954 
7696 2 2.24814 12.2244 31.0288 
2619 2 4.53687 14.2806 29.9664 
1529 1 4.93597 11.786 31.367 
3409 2 4.20757 11.3564 28.1696 
7648 1 16.9657 4.60987 44.7429 
5321 1 8.10872 11.6262 30.5312 
4693 1 17.6146 8.18066 40.0193 
5848 1 9.50437 12.4411 31.4953 
8992 2 9.51168 9.39129 30.5575 
1828 2 11.2667 11.0434 29.2849 
1153 2 14.8993 18.048 38.0462 
6293 1 10.5432 13.4989 29.6932 
897 1 3.29709 -2.16141 29.0386 
2177 2 16.4171 9.36641 31.3118 
3622 2 14.4958 10.3186 28.6553 
1019 1 17.8489 17.809 28.0282 
4635 1 16.0053 12.2684 31.2018 
9355 1 13.894 10.1015 31.4442 
2416 2 -0.347374 16.0091 29.2881 
5013 2 -3.01505 7.61896 35.8876 
7467 1 0.0109812 3.35908 43.8328 
3212 1 13.2535 -2.77614 28.384 
5930 2 3.42334 16.9536 31.7027 
8138 1 1.5492 15.3373 30.8535 
4005 1 4.87355 16.9794 29.6215 
2238 2 -2.55642 14.8058 39.9066 
3356 2 7.80271 14.5642 29.4749 
8873 1 9.49755 14.8524 31.4095 