Position data Generated by SPaMD
4	atoms
2	atom types
0.000000		4.112159	xlo xhi
0.000000		4.154709	ylo yhi
0.000000		5.844617	zlo zhi
0.000000		-0.117163	0.000000	xy xz yz

Atoms

1	1	0.829383	1.038677	1.402024
2	1	3.165613	3.116032	4.442593
3	2	2.943710	3.116032	1.492744
4	2	1.051286	1.038677	4.351873
