Position data Generated by SPaMD
12	atoms
2	atom types
0.000000		4.450555	xlo xhi
0.000000		4.387724	ylo yhi
0.000000		3.703935	zlo zhi
0.788755		1.493266	2.001153	xy xz yz

Atoms

1	1	1.302967	0.843285	0.990003
2	1	5.429609	5.545592	2.713932
3	2	3.660186	2.662371	0.423501
4	2	3.072390	3.726506	3.280434
5	2	2.101351	2.417935	0.846575
6	2	4.631225	3.970942	2.857360
7	2	4.885922	4.890989	1.479766
8	2	1.846654	1.497888	2.224169
9	2	4.142471	3.446296	1.569613
10	2	2.590105	2.942581	2.134322
11	2	2.285909	2.149541	3.469872
12	2	4.446667	4.239336	0.234063
