Position data Generated by SPaMD
8	atoms
2	atom types
0.000000		5.940830	xlo xhi
0.000000		5.940830	ylo yhi
0.000000		5.940830	zlo zhi
0.000000		0.000000	0.000000	xy xz yz

Atoms

1	1	0.000000	0.000000	0.000000
2	2	1.485208	1.485208	1.485208
3	1	0.000000	2.970415	2.970415
4	2	1.485208	4.455623	4.455623
5	1	2.970415	0.000000	2.970415
6	2	4.455623	1.485208	4.455623
7	1	2.970415	2.970415	0.000000
8	2	4.455623	4.455623	1.485208
