Position data Generated by SPaMD
4	atoms
2	atom types
0.000000		3.253300	xlo xhi
0.000000		2.817440	ylo yhi
0.000000		5.207300	zlo zhi
-1.626650		0.000000	0.000000	xy xz yz

Atoms

1	1	1.626650	0.939147	2.606731
2	1	0.000000	1.878294	0.003081
3	2	1.626650	0.939147	4.580957
4	2	0.000000	1.878294	1.977307
