Kikuchi_sphere_radius
39.84063745
Kikuchi_line_intensity
1715
-1.62371477	-0.40176520	-0.30070326	2.09937980
-1.62371477	-0.40176520	-0.24602994	0.60464959
-1.62371477	-0.40176520	-0.19135662	2.16539133
-1.62371477	-0.40176520	-0.16401996	4.16158537
-1.62371477	-0.40176520	-0.13668330	1.45412552
-1.62371477	-0.40176520	-0.08200998	0.15595774
-1.62371477	-0.40176520	-0.02733666	0.07550719
-1.62371477	-0.40176520	0.02733666	0.07550720
-1.62371477	-0.40176520	0.08200998	0.15595770
-1.62371477	-0.40176520	0.13668330	1.45412508
-1.62371477	-0.40176520	0.16401996	4.16158619
-1.62371477	-0.40176520	0.19135662	2.16539119
-1.62371477	-0.40176520	0.24602994	0.60464905
-1.62371477	-0.40176520	0.30070326	2.09937959
-1.62371477	0.40176520	-0.30070326	2.09937980
-1.62371477	0.40176520	-0.24602994	0.60464959
-1.62371477	0.40176520	-0.19135662	2.16539133
-1.62371477	0.40176520	-0.16401996	4.16158537
-1.62371477	0.40176520	-0.13668330	1.45412552
-1.62371477	0.40176520	-0.08200998	0.15595774
-1.62371477	0.40176520	-0.02733666	0.07550719
-1.62371477	0.40176520	0.02733666	0.07550720
-1.62371477	0.40176520	0.08200998	0.15595770
-1.62371477	0.40176520	0.13668330	1.45412508
-1.62371477	0.40176520	0.16401996	4.16158619
-1.62371477	0.40176520	0.19135662	2.16539119
-1.62371477	0.40176520	0.24602994	0.60464905
-1.62371477	0.40176520	0.30070326	2.09937959
-1.39175552	-0.80353039	-0.49205988	16.64634191
-1.39175552	-0.80353039	0.00000000	19.25663023
-1.39175552	-0.80353039	0.49205988	16.64634191
-1.39175552	0.00000000	-0.49205988	25.18697549
-1.39175552	0.00000000	0.00000000	30.16389077
-1.39175552	0.00000000	0.49205988	25.18697549
-1.39175552	0.80353039	-0.49205988	16.64634191
-1.39175552	0.80353039	0.00000000	19.25663023
-1.39175552	0.80353039	0.49205988	16.64634191
-1.15979627	-1.20529559	-0.30070326	2.09939099
-1.15979627	-1.20529559	-0.24602994	0.60465520
-1.15979627	-1.20529559	-0.19135662	2.16540296
-1.15979627	-1.20529559	-0.16401996	4.16158644
-1.15979627	-1.20529559	-0.13668330	1.45411559
-1.15979627	-1.20529559	-0.08200998	0.15595456
-1.15979627	-1.20529559	-0.02733666	0.07550501
-1.15979627	-1.20529559	0.02733666	0.07550500
-1.15979627	-1.20529559	0.08200998	0.15595460
-1.15979627	-1.20529559	0.13668330	1.45411603
-1.15979627	-1.20529559	0.16401996	4.16158562
-1.15979627	-1.20529559	0.19135662	2.16540310
-1.15979627	-1.20529559	0.24602994	0.60465573
-1.15979627	-1.20529559	0.30070326	2.09939120
-1.15979627	-0.40176520	-1.17547637	2.09938550
-1.15979627	-0.40176520	-1.14813971	4.16159123
-1.15979627	-0.40176520	-1.12080305	1.50076368
-1.15979627	-0.40176520	-1.06612973	0.17175697
-1.15979627	-0.40176520	-1.01145641	0.08893816
-1.15979627	-0.40176520	-0.95678309	0.09532365
-1.15979627	-0.40176520	-0.90210977	0.21142295
-1.15979627	-0.40176520	-0.84743645	2.12031150
-1.15979627	-0.40176520	-0.82009979	6.29674398
-1.15979627	-0.40176520	-0.79276313	3.40082696
-1.15979627	-0.40176520	-0.73808981	1.02388945
-1.15979627	-0.40176520	-0.68341649	3.83569122
-1.15979627	-0.40176520	-0.65607983	7.54097882
-1.15979627	-0.40176520	-0.62874317	2.69568032
-1.15979627	-0.40176520	-0.57406986	0.30263847
-1.15979627	-0.40176520	-0.51939654	0.15336822
-1.15979627	-0.40176520	-0.46472322	0.16047900
-1.15979627	-0.40176520	-0.41004990	0.34660716
-1.15979627	-0.40176520	-0.35537658	3.37614510
-1.15979627	-0.40176520	-0.32803992	9.87135678
-1.15979627	-0.40176520	-0.30070326	5.24566191
-1.15979627	-0.40176520	-0.24602994	1.52593459
-1.15979627	-0.40176520	-0.19135662	5.50929497
-1.15979627	-0.40176520	-0.16401996	10.62352529
-1.15979627	-0.40176520	-0.13668330	3.72259855
-1.15979627	-0.40176520	-0.08200998	0.40092167
-1.15979627	-0.40176520	-0.02733666	0.19451391
-1.15979627	-0.40176520	0.02733666	0.19451387
-1.15979627	-0.40176520	0.08200998	0.40092179
-1.15979627	-0.40176520	0.13668330	3.72259968
-1.15979627	-0.40176520	0.16401996	10.62352318
-1.15979627	-0.40176520	0.19135662	5.50929533
-1.15979627	-0.40176520	0.24602994	1.52593595
-1.15979627	-0.40176520	0.30070326	5.24566244
-1.15979627	-0.40176520	0.32803992	9.87135286
-1.15979627	-0.40176520	0.35537658	3.37614777
-1.15979627	-0.40176520	0.41004990	0.34660768
-1.15979627	-0.40176520	0.46472322	0.16047840
-1.15979627	-0.40176520	0.51939654	0.15336758
-1.15979627	-0.40176520	0.57406986	0.30263910
-1.15979627	-0.40176520	0.62874317	2.69568409
-1.15979627	-0.40176520	0.65607983	7.54097284
-1.15979627	-0.40176520	0.68341649	3.83569209
-1.15979627	-0.40176520	0.73808981	1.02389219
-1.15979627	-0.40176520	0.79276313	3.40082787
-1.15979627	-0.40176520	0.82009979	6.29673774
-1.15979627	-0.40176520	0.84743645	2.12031550
-1.15979627	-0.40176520	0.90210977	0.21142364
-1.15979627	-0.40176520	0.95678309	0.09532292
-1.15979627	-0.40176520	1.01145641	0.08893744
-1.15979627	-0.40176520	1.06612973	0.17175763
-1.15979627	-0.40176520	1.12080305	1.50076742
-1.15979627	-0.40176520	1.14813971	4.16158545
-1.15979627	-0.40176520	1.17547637	2.09938633
-1.15979627	0.40176520	-1.17547637	2.09938550
-1.15979627	0.40176520	-1.14813971	4.16159123
-1.15979627	0.40176520	-1.12080305	1.50076368
-1.15979627	0.40176520	-1.06612973	0.17175697
-1.15979627	0.40176520	-1.01145641	0.08893816
-1.15979627	0.40176520	-0.95678309	0.09532365
-1.15979627	0.40176520	-0.90210977	0.21142295
-1.15979627	0.40176520	-0.84743645	2.12031150
-1.15979627	0.40176520	-0.82009979	6.29674398
-1.15979627	0.40176520	-0.79276313	3.40082696
-1.15979627	0.40176520	-0.73808981	1.02388945
-1.15979627	0.40176520	-0.68341649	3.83569122
-1.15979627	0.40176520	-0.65607983	7.54097882
-1.15979627	0.40176520	-0.62874317	2.69568032
-1.15979627	0.40176520	-0.57406986	0.30263847
-1.15979627	0.40176520	-0.51939654	0.15336822
-1.15979627	0.40176520	-0.46472322	0.16047900
-1.15979627	0.40176520	-0.41004990	0.34660716
-1.15979627	0.40176520	-0.35537658	3.37614510
-1.15979627	0.40176520	-0.32803992	9.87135678
-1.15979627	0.40176520	-0.30070326	5.24566191
-1.15979627	0.40176520	-0.24602994	1.52593459
-1.15979627	0.40176520	-0.19135662	5.50929497
-1.15979627	0.40176520	-0.16401996	10.62352529
-1.15979627	0.40176520	-0.13668330	3.72259855
-1.15979627	0.40176520	-0.08200998	0.40092167
-1.15979627	0.40176520	-0.02733666	0.19451391
-1.15979627	0.40176520	0.02733666	0.19451387
-1.15979627	0.40176520	0.08200998	0.40092179
-1.15979627	0.40176520	0.13668330	3.72259968
-1.15979627	0.40176520	0.16401996	10.62352318
-1.15979627	0.40176520	0.19135662	5.50929533
-1.15979627	0.40176520	0.24602994	1.52593595
-1.15979627	0.40176520	0.30070326	5.24566244
-1.15979627	0.40176520	0.32803992	9.87135286
-1.15979627	0.40176520	0.35537658	3.37614777
-1.15979627	0.40176520	0.41004990	0.34660768
-1.15979627	0.40176520	0.46472322	0.16047840
-1.15979627	0.40176520	0.51939654	0.15336758
-1.15979627	0.40176520	0.57406986	0.30263910
-1.15979627	0.40176520	0.62874317	2.69568409
-1.15979627	0.40176520	0.65607983	7.54097284
-1.15979627	0.40176520	0.68341649	3.83569209
-1.15979627	0.40176520	0.73808981	1.02389219
-1.15979627	0.40176520	0.79276313	3.40082787
-1.15979627	0.40176520	0.82009979	6.29673774
-1.15979627	0.40176520	0.84743645	2.12031550
-1.15979627	0.40176520	0.90210977	0.21142364
-1.15979627	0.40176520	0.95678309	0.09532292
-1.15979627	0.40176520	1.01145641	0.08893744
-1.15979627	0.40176520	1.06612973	0.17175763
-1.15979627	0.40176520	1.12080305	1.50076742
-1.15979627	0.40176520	1.14813971	4.16158545
-1.15979627	0.40176520	1.17547637	2.09938633
-1.15979627	1.20529559	-0.30070326	2.09939099
-1.15979627	1.20529559	-0.24602994	0.60465520
-1.15979627	1.20529559	-0.19135662	2.16540296
-1.15979627	1.20529559	-0.16401996	4.16158644
-1.15979627	1.20529559	-0.13668330	1.45411559
-1.15979627	1.20529559	-0.08200998	0.15595456
-1.15979627	1.20529559	-0.02733666	0.07550501
-1.15979627	1.20529559	0.02733666	0.07550500
-1.15979627	1.20529559	0.08200998	0.15595460
-1.15979627	1.20529559	0.13668330	1.45411603
-1.15979627	1.20529559	0.16401996	4.16158562
-1.15979627	1.20529559	0.19135662	2.16540310
-1.15979627	1.20529559	0.24602994	0.60465573
-1.15979627	1.20529559	0.30070326	2.09939120
-0.92783701	-0.80353039	-1.17547637	2.09937791
-0.92783701	-0.80353039	-1.14813971	4.16158555
-0.92783701	-0.80353039	-1.12080305	1.50077487
-0.92783701	-0.80353039	-1.06612973	0.17176024
-0.92783701	-0.80353039	-1.01145641	0.08893938
-0.92783701	-0.80353039	-0.95678309	0.09532500
-0.92783701	-0.80353039	-0.90210977	0.21142685
-0.92783701	-0.80353039	-0.84743645	2.12032604
-0.92783701	-0.80353039	-0.82009979	6.29673791
-0.92783701	-0.80353039	-0.79276313	3.40081426
-0.92783701	-0.80353039	-0.73808981	1.02388447
-0.92783701	-0.80353039	-0.68341649	3.83567675
-0.92783701	-0.80353039	-0.65607983	7.54097307
-0.92783701	-0.80353039	-0.62874317	2.69569750
-0.92783701	-0.80353039	-0.57406986	0.30264370
-0.92783701	-0.80353039	-0.51939654	0.15337093
-0.92783701	-0.80353039	-0.46472322	0.16048191
-0.92783701	-0.80353039	-0.41004990	0.34661294
-0.92783701	-0.80353039	-0.35537658	3.37616458
-0.92783701	-0.80353039	-0.32803992	9.87135321
-0.92783701	-0.80353039	-0.30070326	5.24564148
-0.92783701	-0.80353039	-0.24602994	1.52592445
-0.92783701	-0.80353039	-0.19135662	5.50927332
-0.92783701	-0.80353039	-0.16401996	10.62352356
-0.92783701	-0.80353039	-0.13668330	3.72261822
-0.92783701	-0.80353039	-0.08200998	0.40092787
-0.92783701	-0.80353039	-0.02733666	0.19451812
-0.92783701	-0.80353039	0.02733666	0.19451816
-0.92783701	-0.80353039	0.08200998	0.40092775
-0.92783701	-0.80353039	0.13668330	3.72261709
-0.92783701	-0.80353039	0.16401996	10.62352567
-0.92783701	-0.80353039	0.19135662	5.50927297
-0.92783701	-0.80353039	0.24602994	1.52592309
-0.92783701	-0.80353039	0.30070326	5.24564095
-0.92783701	-0.80353039	0.32803992	9.87135712
-0.92783701	-0.80353039	0.35537658	3.37616191
-0.92783701	-0.80353039	0.41004990	0.34661242
-0.92783701	-0.80353039	0.46472322	0.16048250
-0.92783701	-0.80353039	0.51939654	0.15337157
-0.92783701	-0.80353039	0.57406986	0.30264307
-0.92783701	-0.80353039	0.62874317	2.69569373
-0.92783701	-0.80353039	0.65607983	7.54097905
-0.92783701	-0.80353039	0.68341649	3.83567587
-0.92783701	-0.80353039	0.73808981	1.02388173
-0.92783701	-0.80353039	0.79276313	3.40081335
-0.92783701	-0.80353039	0.82009979	6.29674416
-0.92783701	-0.80353039	0.84743645	2.12032204
-0.92783701	-0.80353039	0.90210977	0.21142615
-0.92783701	-0.80353039	0.95678309	0.09532573
-0.92783701	-0.80353039	1.01145641	0.08894010
-0.92783701	-0.80353039	1.06612973	0.17175957
-0.92783701	-0.80353039	1.12080305	1.50077113
-0.92783701	-0.80353039	1.14813971	4.16159133
-0.92783701	-0.80353039	1.17547637	2.09937709
-0.92783701	0.00000000	-1.39416965	0.15595858
-0.92783701	0.00000000	-1.33949633	1.60095064
-0.92783701	0.00000000	-1.31215967	4.81414990
-0.92783701	0.00000000	-1.28482301	2.63434712
-0.92783701	0.00000000	-1.23014969	0.81567914
-0.92783701	0.00000000	-1.17547637	3.15083179
-0.92783701	0.00000000	-1.14813971	6.29674400
-0.92783701	0.00000000	-1.12080305	2.28967220
-0.92783701	0.00000000	-1.06612973	0.26656726
-0.92783701	0.00000000	-1.01145641	0.14050244
-0.92783701	0.00000000	-0.95678309	0.15337197
-0.92783701	0.00000000	-0.90210977	0.34661417
-0.92783701	0.00000000	-0.84743645	3.54305164
-0.92783701	0.00000000	-0.82009979	10.62351269
-0.92783701	0.00000000	-0.79276313	5.79327268
-0.92783701	0.00000000	-0.73808981	1.77813796
-0.92783701	0.00000000	-0.68341649	6.78988522
-0.92783701	0.00000000	-0.65607983	13.47569947
-0.92783701	0.00000000	-0.62874317	4.86241990
-0.92783701	0.00000000	-0.57406986	0.55596744
-0.92783701	0.00000000	-0.51939654	0.28674231
-0.92783701	0.00000000	-0.46472322	0.30508271
-0.92783701	0.00000000	-0.41004990	0.66927649
-0.92783701	0.00000000	-0.35537658	6.61290000
-0.92783701	0.00000000	-0.32803992	19.46300588
-0.92783701	0.00000000	-0.30070326	10.40691920
-0.92783701	0.00000000	-0.24602994	3.06103480
-0.92783701	0.00000000	-0.19135662	11.15344724
-0.92783701	0.00000000	-0.16401996	21.58914157
-0.92783701	0.00000000	-0.13668330	7.58979030
-0.92783701	0.00000000	-0.08200998	0.82135920
-0.92783701	0.00000000	-0.02733666	0.39946857
-0.92783701	0.00000000	0.02733666	0.39946866
-0.92783701	0.00000000	0.08200998	0.82135895
-0.92783701	0.00000000	0.13668330	7.58978799
-0.92783701	0.00000000	0.16401996	21.58914585
-0.92783701	0.00000000	0.19135662	11.15344652
-0.92783701	0.00000000	0.24602994	3.06103207
-0.92783701	0.00000000	0.30070326	10.40691815
-0.92783701	0.00000000	0.32803992	19.46301360
-0.92783701	0.00000000	0.35537658	6.61289478
-0.92783701	0.00000000	0.41004990	0.66927549
-0.92783701	0.00000000	0.46472322	0.30508385
-0.92783701	0.00000000	0.51939654	0.28674350
-0.92783701	0.00000000	0.57406986	0.55596628
-0.92783701	0.00000000	0.62874317	4.86241310
-0.92783701	0.00000000	0.65607983	13.47571016
-0.92783701	0.00000000	0.68341649	6.78988367
-0.92783701	0.00000000	0.73808981	1.77813320
-0.92783701	0.00000000	0.79276313	5.79327114
-0.92783701	0.00000000	0.82009979	10.62352323
-0.92783701	0.00000000	0.84743645	3.54304496
-0.92783701	0.00000000	0.90210977	0.34661303
-0.92783701	0.00000000	0.95678309	0.15337315
-0.92783701	0.00000000	1.01145641	0.14050357
-0.92783701	0.00000000	1.06612973	0.26656623
-0.92783701	0.00000000	1.12080305	2.28966649
-0.92783701	0.00000000	1.14813971	6.29675275
-0.92783701	0.00000000	1.17547637	3.15083055
-0.92783701	0.00000000	1.23014969	0.81567550
-0.92783701	0.00000000	1.28482301	2.63434598
-0.92783701	0.00000000	1.31215967	4.81415754
-0.92783701	0.00000000	1.33949633	1.60094587
-0.92783701	0.00000000	1.39416965	0.15595779
-0.92783701	0.80353039	-1.17547637	2.09937791
-0.92783701	0.80353039	-1.14813971	4.16158555
-0.92783701	0.80353039	-1.12080305	1.50077487
-0.92783701	0.80353039	-1.06612973	0.17176024
-0.92783701	0.80353039	-1.01145641	0.08893938
-0.92783701	0.80353039	-0.95678309	0.09532500
-0.92783701	0.80353039	-0.90210977	0.21142685
-0.92783701	0.80353039	-0.84743645	2.12032604
-0.92783701	0.80353039	-0.82009979	6.29673791
-0.92783701	0.80353039	-0.79276313	3.40081426
-0.92783701	0.80353039	-0.73808981	1.02388447
-0.92783701	0.80353039	-0.68341649	3.83567675
-0.92783701	0.80353039	-0.65607983	7.54097307
-0.92783701	0.80353039	-0.62874317	2.69569750
-0.92783701	0.80353039	-0.57406986	0.30264370
-0.92783701	0.80353039	-0.51939654	0.15337093
-0.92783701	0.80353039	-0.46472322	0.16048191
-0.92783701	0.80353039	-0.41004990	0.34661294
-0.92783701	0.80353039	-0.35537658	3.37616458
-0.92783701	0.80353039	-0.32803992	9.87135321
-0.92783701	0.80353039	-0.30070326	5.24564148
-0.92783701	0.80353039	-0.24602994	1.52592445
-0.92783701	0.80353039	-0.19135662	5.50927332
-0.92783701	0.80353039	-0.16401996	10.62352356
-0.92783701	0.80353039	-0.13668330	3.72261822
-0.92783701	0.80353039	-0.08200998	0.40092787
-0.92783701	0.80353039	-0.02733666	0.19451812
-0.92783701	0.80353039	0.02733666	0.19451816
-0.92783701	0.80353039	0.08200998	0.40092775
-0.92783701	0.80353039	0.13668330	3.72261709
-0.92783701	0.80353039	0.16401996	10.62352567
-0.92783701	0.80353039	0.19135662	5.50927297
-0.92783701	0.80353039	0.24602994	1.52592309
-0.92783701	0.80353039	0.30070326	5.24564095
-0.92783701	0.80353039	0.32803992	9.87135712
-0.92783701	0.80353039	0.35537658	3.37616191
-0.92783701	0.80353039	0.41004990	0.34661242
-0.92783701	0.80353039	0.46472322	0.16048250
-0.92783701	0.80353039	0.51939654	0.15337157
-0.92783701	0.80353039	0.57406986	0.30264307
-0.92783701	0.80353039	0.62874317	2.69569373
-0.92783701	0.80353039	0.65607983	7.54097905
-0.92783701	0.80353039	0.68341649	3.83567587
-0.92783701	0.80353039	0.73808981	1.02388173
-0.92783701	0.80353039	0.79276313	3.40081335
-0.92783701	0.80353039	0.82009979	6.29674416
-0.92783701	0.80353039	0.84743645	2.12032204
-0.92783701	0.80353039	0.90210977	0.21142615
-0.92783701	0.80353039	0.95678309	0.09532573
-0.92783701	0.80353039	1.01145641	0.08894010
-0.92783701	0.80353039	1.06612973	0.17175957
-0.92783701	0.80353039	1.12080305	1.50077113
-0.92783701	0.80353039	1.14813971	4.16159133
-0.92783701	0.80353039	1.17547637	2.09937709
-0.69587776	-1.20529559	-0.49205988	25.18697758
-0.69587776	-1.20529559	0.00000000	30.16389351
-0.69587776	-1.20529559	0.49205988	25.18697758
-0.69587776	-0.40176520	-1.47617963	16.64634204
-0.69587776	-0.40176520	-0.98411975	39.48542794
-0.69587776	-0.40176520	-0.49205988	86.35656842
-0.69587776	-0.40176520	0.00000000	123.05621086
-0.69587776	-0.40176520	0.49205988	86.35656842
-0.69587776	-0.40176520	0.98411975	39.48542794
-0.69587776	-0.40176520	1.47617963	16.64634204
-0.69587776	0.40176520	-1.47617963	16.64634204
-0.69587776	0.40176520	-0.98411975	39.48542794
-0.69587776	0.40176520	-0.49205988	86.35656842
-0.69587776	0.40176520	0.00000000	123.05621086
-0.69587776	0.40176520	0.49205988	86.35656842
-0.69587776	0.40176520	0.98411975	39.48542794
-0.69587776	0.40176520	1.47617963	16.64634204
-0.69587776	1.20529559	-0.49205988	25.18697758
-0.69587776	1.20529559	0.00000000	30.16389351
-0.69587776	1.20529559	0.49205988	25.18697758
-0.46391851	-1.60706078	-0.30070326	2.09938828
-0.46391851	-1.60706078	-0.24602994	0.60465370
-0.46391851	-1.60706078	-0.19135662	2.16540016
-0.46391851	-1.60706078	-0.16401996	4.16158666
-0.46391851	-1.60706078	-0.13668330	1.45411806
-0.46391851	-1.60706078	-0.08200998	0.15595535
-0.46391851	-1.60706078	-0.02733666	0.07550556
-0.46391851	-1.60706078	0.02733666	0.07550555
-0.46391851	-1.60706078	0.08200998	0.15595540
-0.46391851	-1.60706078	0.13668330	1.45411850
-0.46391851	-1.60706078	0.16401996	4.16158584
-0.46391851	-1.60706078	0.19135662	2.16540030
-0.46391851	-1.60706078	0.24602994	0.60465424
-0.46391851	-1.60706078	0.30070326	2.09938849
-0.46391851	-0.80353039	-1.39416965	0.15595622
-0.46391851	-0.80353039	-1.33949633	1.60094064
-0.46391851	-0.80353039	-1.31215967	4.81415770
-0.46391851	-0.80353039	-1.28482301	2.63435315
-0.46391851	-0.80353039	-1.23014969	0.81567964
-0.46391851	-0.80353039	-1.17547637	3.15083913
-0.46391851	-0.80353039	-1.14813971	6.29675298
-0.46391851	-0.80353039	-1.12080305	2.28965903
-0.46391851	-0.80353039	-1.06612973	0.26656355
-0.46391851	-0.80353039	-1.01145641	0.14050154
-0.46391851	-0.80353039	-0.95678309	0.15337092
-0.46391851	-0.80353039	-0.90210977	0.34660955
-0.46391851	-0.80353039	-0.84743645	3.54303345
-0.46391851	-0.80353039	-0.82009979	10.62352374
-0.46391851	-0.80353039	-0.79276313	5.79328698
-0.46391851	-0.80353039	-0.73808981	1.77814227
-0.46391851	-0.80353039	-0.68341649	6.78990227
-0.46391851	-0.80353039	-0.65607983	13.47571089
-0.46391851	-0.80353039	-0.62874317	4.86239735
-0.46391851	-0.80353039	-0.57406986	0.55596070
-0.46391851	-0.80353039	-0.51939654	0.28673935
-0.46391851	-0.80353039	-0.46472322	0.30507943
-0.46391851	-0.80353039	-0.41004990	0.66926877
-0.46391851	-0.80353039	-0.35537658	6.61287341
-0.46391851	-0.80353039	-0.32803992	19.46301486
-0.46391851	-0.80353039	-0.30070326	10.40694679
-0.46391851	-0.80353039	-0.24602994	3.06104773
-0.46391851	-0.80353039	-0.19135662	11.15347724
-0.46391851	-0.80353039	-0.16401996	21.58914733
-0.46391851	-0.80353039	-0.13668330	7.58976350
-0.46391851	-0.80353039	-0.08200998	0.82135072
-0.46391851	-0.80353039	-0.02733666	0.39946288
-0.46391851	-0.80353039	0.02733666	0.39946279
-0.46391851	-0.80353039	0.08200998	0.82135096
-0.46391851	-0.80353039	0.13668330	7.58976581
-0.46391851	-0.80353039	0.16401996	21.58914305
-0.46391851	-0.80353039	0.19135662	11.15347796
-0.46391851	-0.80353039	0.24602994	3.06105046
-0.46391851	-0.80353039	0.30070326	10.40694784
-0.46391851	-0.80353039	0.32803992	19.46300714
-0.46391851	-0.80353039	0.35537658	6.61287864
-0.46391851	-0.80353039	0.41004990	0.66926977
-0.46391851	-0.80353039	0.46472322	0.30507830
-0.46391851	-0.80353039	0.51939654	0.28673816
-0.46391851	-0.80353039	0.57406986	0.55596186
-0.46391851	-0.80353039	0.62874317	4.86240415
-0.46391851	-0.80353039	0.65607983	13.47570020
-0.46391851	-0.80353039	0.68341649	6.78990382
-0.46391851	-0.80353039	0.73808981	1.77814703
-0.46391851	-0.80353039	0.79276313	5.79328852
-0.46391851	-0.80353039	0.82009979	10.62351320
-0.46391851	-0.80353039	0.84743645	3.54304013
-0.46391851	-0.80353039	0.90210977	0.34661068
-0.46391851	-0.80353039	0.95678309	0.15336975
-0.46391851	-0.80353039	1.01145641	0.14050040
-0.46391851	-0.80353039	1.06612973	0.26656458
-0.46391851	-0.80353039	1.12080305	2.28966474
-0.46391851	-0.80353039	1.14813971	6.29674424
-0.46391851	-0.80353039	1.17547637	3.15084037
-0.46391851	-0.80353039	1.23014969	0.81568328
-0.46391851	-0.80353039	1.28482301	2.63435428
-0.46391851	-0.80353039	1.31215967	4.81415006
-0.46391851	-0.80353039	1.33949633	1.60094541
-0.46391851	-0.80353039	1.39416965	0.15595701
-0.46391851	0.00000000	-1.61286293	1.45411706
-0.46391851	0.00000000	-1.55818961	0.17175722
-0.46391851	0.00000000	-1.50351629	0.09204849
-0.46391851	0.00000000	-1.44884297	0.10241893
-0.46391851	0.00000000	-1.39416965	0.23659920
-0.46391851	0.00000000	-1.33949633	2.48019825
-0.46391851	0.00000000	-1.31215967	7.54097297
-0.46391851	0.00000000	-1.28482301	4.17390950
-0.46391851	0.00000000	-1.23014969	1.32376751
-0.46391851	0.00000000	-1.17547637	5.24564145
-0.46391851	0.00000000	-1.14813971	10.62353815
-0.46391851	0.00000000	-1.12080305	3.91614426
-0.46391851	0.00000000	-1.06612973	0.46903843
-0.46391851	0.00000000	-1.01145641	0.25467239
-0.46391851	0.00000000	-0.95678309	0.28674230
-0.46391851	0.00000000	-0.90210977	0.66926994
-0.46391851	0.00000000	-0.84743645	7.07562650
-0.46391851	0.00000000	-0.82009979	21.58914207
-0.46391851	0.00000000	-0.79276313	11.98583577
-0.46391851	0.00000000	-0.73808981	3.81903996
-0.46391851	0.00000000	-0.68341649	15.17741963
-0.46391851	0.00000000	-0.65607983	30.76407706
-0.46391851	0.00000000	-0.62874317	11.34641808
-0.46391851	0.00000000	-0.57406986	1.35906338
-0.46391851	0.00000000	-0.51939654	0.73699616
-0.46391851	0.00000000	-0.46472322	0.82732943
-0.46391851	0.00000000	-0.41004990	1.92019439
-0.46391851	0.00000000	-0.35537658	20.10201641
-0.46391851	0.00000000	-0.32803992	60.89761518
-0.46391851	0.00000000	-0.30070326	33.50312391
-0.46391851	0.00000000	-0.24602994	10.40656810
-0.46391851	0.00000000	-0.19135662	39.81691364
-0.46391851	0.00000000	-0.16401996	78.73642344
-0.46391851	0.00000000	-0.13668330	28.20665767
-0.46391851	0.00000000	-0.08200998	3.14146331
-0.46391851	0.00000000	-0.02733666	1.55093382
-0.46391851	0.00000000	0.02733666	1.55093348
-0.46391851	0.00000000	0.08200998	3.14146424
-0.46391851	0.00000000	0.13668330	28.20666625
-0.46391851	0.00000000	0.16401996	78.73640783
-0.46391851	0.00000000	0.19135662	39.81691620
-0.46391851	0.00000000	0.24602994	10.40657739
-0.46391851	0.00000000	0.30070326	33.50312729
-0.46391851	0.00000000	0.32803992	60.89759102
-0.46391851	0.00000000	0.35537658	20.10203230
-0.46391851	0.00000000	0.41004990	1.92019724
-0.46391851	0.00000000	0.46472322	0.82732636
-0.46391851	0.00000000	0.51939654	0.73699310
-0.46391851	0.00000000	0.57406986	1.35906621
-0.46391851	0.00000000	0.62874317	11.34643396
-0.46391851	0.00000000	0.65607983	30.76405265
-0.46391851	0.00000000	0.68341649	15.17742310
-0.46391851	0.00000000	0.73808981	3.81905018
-0.46391851	0.00000000	0.79276313	11.98583895
-0.46391851	0.00000000	0.82009979	21.58912066
-0.46391851	0.00000000	0.84743645	7.07563984
-0.46391851	0.00000000	0.90210977	0.66927213
-0.46391851	0.00000000	0.95678309	0.28674011
-0.46391851	0.00000000	1.01145641	0.25467033
-0.46391851	0.00000000	1.06612973	0.46904024
-0.46391851	0.00000000	1.12080305	3.91615403
-0.46391851	0.00000000	1.14813971	10.62352340
-0.46391851	0.00000000	1.17547637	5.24564352
-0.46391851	0.00000000	1.23014969	1.32377342
-0.46391851	0.00000000	1.28482301	4.17391130
-0.46391851	0.00000000	1.31215967	7.54096100
-0.46391851	0.00000000	1.33949633	2.48020565
-0.46391851	0.00000000	1.39416965	0.23660039
-0.46391851	0.00000000	1.44884297	0.10241775
-0.46391851	0.00000000	1.50351629	0.09204738
-0.46391851	0.00000000	1.55818961	0.17175819
-0.46391851	0.00000000	1.61286293	1.45412228
-0.46391851	0.80353039	-1.39416965	0.15595622
-0.46391851	0.80353039	-1.33949633	1.60094064
-0.46391851	0.80353039	-1.31215967	4.81415770
-0.46391851	0.80353039	-1.28482301	2.63435315
-0.46391851	0.80353039	-1.23014969	0.81567964
-0.46391851	0.80353039	-1.17547637	3.15083913
-0.46391851	0.80353039	-1.14813971	6.29675298
-0.46391851	0.80353039	-1.12080305	2.28965903
-0.46391851	0.80353039	-1.06612973	0.26656355
-0.46391851	0.80353039	-1.01145641	0.14050154
-0.46391851	0.80353039	-0.95678309	0.15337092
-0.46391851	0.80353039	-0.90210977	0.34660955
-0.46391851	0.80353039	-0.84743645	3.54303345
-0.46391851	0.80353039	-0.82009979	10.62352374
-0.46391851	0.80353039	-0.79276313	5.79328698
-0.46391851	0.80353039	-0.73808981	1.77814227
-0.46391851	0.80353039	-0.68341649	6.78990227
-0.46391851	0.80353039	-0.65607983	13.47571089
-0.46391851	0.80353039	-0.62874317	4.86239735
-0.46391851	0.80353039	-0.57406986	0.55596070
-0.46391851	0.80353039	-0.51939654	0.28673935
-0.46391851	0.80353039	-0.46472322	0.30507943
-0.46391851	0.80353039	-0.41004990	0.66926877
-0.46391851	0.80353039	-0.35537658	6.61287341
-0.46391851	0.80353039	-0.32803992	19.46301486
-0.46391851	0.80353039	-0.30070326	10.40694679
-0.46391851	0.80353039	-0.24602994	3.06104773
-0.46391851	0.80353039	-0.19135662	11.15347724
-0.46391851	0.80353039	-0.16401996	21.58914733
-0.46391851	0.80353039	-0.13668330	7.58976350
-0.46391851	0.80353039	-0.08200998	0.82135072
-0.46391851	0.80353039	-0.02733666	0.39946288
-0.46391851	0.80353039	0.02733666	0.39946279
-0.46391851	0.80353039	0.08200998	0.82135096
-0.46391851	0.80353039	0.13668330	7.58976581
-0.46391851	0.80353039	0.16401996	21.58914305
-0.46391851	0.80353039	0.19135662	11.15347796
-0.46391851	0.80353039	0.24602994	3.06105046
-0.46391851	0.80353039	0.30070326	10.40694784
-0.46391851	0.80353039	0.32803992	19.46300714
-0.46391851	0.80353039	0.35537658	6.61287864
-0.46391851	0.80353039	0.41004990	0.66926977
-0.46391851	0.80353039	0.46472322	0.30507830
-0.46391851	0.80353039	0.51939654	0.28673816
-0.46391851	0.80353039	0.57406986	0.55596186
-0.46391851	0.80353039	0.62874317	4.86240415
-0.46391851	0.80353039	0.65607983	13.47570020
-0.46391851	0.80353039	0.68341649	6.78990382
-0.46391851	0.80353039	0.73808981	1.77814703
-0.46391851	0.80353039	0.79276313	5.79328852
-0.46391851	0.80353039	0.82009979	10.62351320
-0.46391851	0.80353039	0.84743645	3.54304013
-0.46391851	0.80353039	0.90210977	0.34661068
-0.46391851	0.80353039	0.95678309	0.15336975
-0.46391851	0.80353039	1.01145641	0.14050040
-0.46391851	0.80353039	1.06612973	0.26656458
-0.46391851	0.80353039	1.12080305	2.28966474
-0.46391851	0.80353039	1.14813971	6.29674424
-0.46391851	0.80353039	1.17547637	3.15084037
-0.46391851	0.80353039	1.23014969	0.81568328
-0.46391851	0.80353039	1.28482301	2.63435428
-0.46391851	0.80353039	1.31215967	4.81415006
-0.46391851	0.80353039	1.33949633	1.60094541
-0.46391851	0.80353039	1.39416965	0.15595701
-0.46391851	1.60706078	-0.30070326	2.09938828
-0.46391851	1.60706078	-0.24602994	0.60465370
-0.46391851	1.60706078	-0.19135662	2.16540016
-0.46391851	1.60706078	-0.16401996	4.16158666
-0.46391851	1.60706078	-0.13668330	1.45411806
-0.46391851	1.60706078	-0.08200998	0.15595535
-0.46391851	1.60706078	-0.02733666	0.07550556
-0.46391851	1.60706078	0.02733666	0.07550555
-0.46391851	1.60706078	0.08200998	0.15595540
-0.46391851	1.60706078	0.13668330	1.45411850
-0.46391851	1.60706078	0.16401996	4.16158584
-0.46391851	1.60706078	0.19135662	2.16540030
-0.46391851	1.60706078	0.24602994	0.60465424
-0.46391851	1.60706078	0.30070326	2.09938849
-0.23195925	-1.20529559	-1.17547637	2.09938081
-0.23195925	-1.20529559	-1.14813971	4.16158570
-0.23195925	-1.20529559	-1.12080305	1.50077246
-0.23195925	-1.20529559	-1.06612973	0.17175938
-0.23195925	-1.20529559	-1.01145641	0.08893874
-0.23195925	-1.20529559	-0.95678309	0.09532431
-0.23195925	-1.20529559	-0.90210977	0.21142579
-0.23195925	-1.20529559	-0.84743645	2.12032264
-0.23195925	-1.20529559	-0.82009979	6.29673820
-0.23195925	-1.20529559	-0.79276313	3.40081898
-0.23195925	-1.20529559	-0.73808981	1.02388710
-0.23195925	-1.20529559	-0.68341649	3.83568210
-0.23195925	-1.20529559	-0.65607983	7.54097345
-0.23195925	-1.20529559	-0.62874317	2.69569319
-0.23195925	-1.20529559	-0.57406986	0.30264219
-0.23195925	-1.20529559	-0.51939654	0.15336982
-0.23195925	-1.20529559	-0.46472322	0.16048075
-0.23195925	-1.20529559	-0.41004990	0.34661121
-0.23195925	-1.20529559	-0.35537658	3.37615921
-0.23195925	-1.20529559	-0.32803992	9.87135378
-0.23195925	-1.20529559	-0.30070326	5.24564883
-0.23195925	-1.20529559	-0.24602994	1.52592839
-0.23195925	-1.20529559	-0.19135662	5.50928105
-0.23195925	-1.20529559	-0.16401996	10.62352420
-0.23195925	-1.20529559	-0.13668330	3.72261231
-0.23195925	-1.20529559	-0.08200998	0.40092587
-0.23195925	-1.20529559	-0.02733666	0.19451672
-0.23195925	-1.20529559	0.02733666	0.19451676
-0.23195925	-1.20529559	0.08200998	0.40092575
-0.23195925	-1.20529559	0.13668330	3.72261118
-0.23195925	-1.20529559	0.16401996	10.62352631
-0.23195925	-1.20529559	0.19135662	5.50928070
-0.23195925	-1.20529559	0.24602994	1.52592703
-0.23195925	-1.20529559	0.30070326	5.24564830
-0.23195925	-1.20529559	0.32803992	9.87135769
-0.23195925	-1.20529559	0.35537658	3.37615654
-0.23195925	-1.20529559	0.41004990	0.34661069
-0.23195925	-1.20529559	0.46472322	0.16048134
-0.23195925	-1.20529559	0.51939654	0.15337046
-0.23195925	-1.20529559	0.57406986	0.30264156
-0.23195925	-1.20529559	0.62874317	2.69568942
-0.23195925	-1.20529559	0.65607983	7.54097943
-0.23195925	-1.20529559	0.68341649	3.83568122
-0.23195925	-1.20529559	0.73808981	1.02388436
-0.23195925	-1.20529559	0.79276313	3.40081808
-0.23195925	-1.20529559	0.82009979	6.29674445
-0.23195925	-1.20529559	0.84743645	2.12031864
-0.23195925	-1.20529559	0.90210977	0.21142510
-0.23195925	-1.20529559	0.95678309	0.09532504
-0.23195925	-1.20529559	1.01145641	0.08893946
-0.23195925	-1.20529559	1.06612973	0.17175871
-0.23195925	-1.20529559	1.12080305	1.50076871
-0.23195925	-1.20529559	1.14813971	4.16159148
-0.23195925	-1.20529559	1.17547637	2.09937998
-0.23195925	-0.40176520	-1.61286293	1.45412468
-0.23195925	-0.40176520	-1.55818961	0.17175906