Position data Generated by SPaMD
36	atoms
1	atom types
0.000000		4.311102	xlo xhi
0.000000		2.489016	ylo yhi
0.000000		36.580914	zlo zhi
0.000000		0.000000	0.000000	xy xz yz

Atoms

1	1	0.000000	0.000000	9.145228
2	1	0.718517	1.244508	13.209775
3	1	2.155551	1.244508	9.145228
4	1	2.874068	0.000000	13.209775
5	1	1.437034	0.000000	11.177501
6	1	3.592585	1.244508	11.177501
7	1	0.000000	0.000000	15.242047
8	1	0.718517	1.244508	1.016136
9	1	2.155551	1.244508	15.242047
10	1	2.874068	0.000000	1.016136
11	1	1.437034	0.000000	17.274321
12	1	3.592585	1.244508	17.274321
13	1	0.000000	0.000000	3.048410
14	1	0.718517	1.244508	7.112956
15	1	2.155551	1.244508	3.048410
16	1	2.874068	0.000000	7.112956
17	1	1.437034	0.000000	5.080682
18	1	3.592585	1.244508	5.080682
19	1	1.437033	0.000000	27.435685
20	1	2.155550	1.244508	23.371139
21	1	3.592584	1.244508	27.435685
22	1	4.311101	0.000000	23.371139
23	1	2.874067	0.000000	25.403413
24	1	0.718516	1.244508	25.403413
25	1	1.437033	0.000000	21.338867
26	1	2.155550	1.244508	35.564778
27	1	3.592584	1.244508	21.338867
28	1	4.311101	0.000000	35.564778
29	1	2.874067	0.000000	19.306593
30	1	0.718516	1.244508	19.306593
31	1	1.437033	0.000000	33.532505
32	1	2.155550	1.244508	29.467958
33	1	3.592584	1.244508	33.532505
34	1	4.311101	0.000000	29.467958
35	1	2.874067	0.000000	31.500232
36	1	0.718516	1.244508	31.500232
