Kikuchi_sphere_radius
39.84063745
Kikuchi_line_intensity
1859
-1.57112215	-0.45354384	-0.29039592	2.35998731
-1.57112215	-0.45354384	-0.07259898	0.22046689
-1.57112215	-0.45354384	0.14519796	0.00346361
-1.57112215	-0.45354384	0.36299491	0.20238241
-1.57112215	-0.22677192	-0.58079185	0.22567566
-1.57112215	-0.22677192	-0.36299491	0.06772069
-1.57112215	-0.22677192	-0.14519796	0.01004096
-1.57112215	-0.22677192	0.07259898	0.07413671
-1.57112215	-0.22677192	0.29039592	2.47937075
-1.57112215	-0.22677192	0.50819287	0.06211254
-1.57112215	0.00000000	-0.43559389	1.33658120
-1.57112215	0.00000000	-0.21779694	0.18777852
-1.57112215	0.00000000	0.00000000	1.94979034
-1.57112215	0.00000000	0.21779694	0.18777864
-1.57112215	0.00000000	0.43559389	1.33658120
-1.57112215	0.22677192	-0.50819287	0.06211258
-1.57112215	0.22677192	-0.29039592	2.47937075
-1.57112215	0.22677192	-0.07259898	0.07413666
-1.57112215	0.22677192	0.14519796	0.01004096
-1.57112215	0.22677192	0.36299491	0.06772040
-1.57112215	0.22677192	0.58079185	0.22567566
-1.57112215	0.45354384	-0.36299491	0.20238288
-1.57112215	0.45354384	-0.14519796	0.00346361
-1.57112215	0.45354384	0.07259898	0.22046698
-1.57112215	0.45354384	0.29039592	2.35998731
-1.37473188	-0.79370173	-0.29039592	0.49709893
-1.37473188	-0.79370173	0.14519796	0.97964979
-1.37473188	-0.79370173	0.58079185	1.62041085
-1.37473188	-0.56692981	-0.79858879	0.02713005
-1.37473188	-0.56692981	-0.58079185	1.02434687
-1.37473188	-0.56692981	-0.36299491	0.03896024
-1.37473188	-0.56692981	-0.14519796	0.43940021
-1.37473188	-0.56692981	0.07259898	0.04314186
-1.37473188	-0.56692981	0.29039592	1.46072639
-1.37473188	-0.56692981	0.50819287	0.03535877
-1.37473188	-0.56692981	0.72598981	2.43226247
-1.37473188	-0.34015788	-0.87118777	0.11626910
-1.37473188	-0.34015788	-0.65339083	0.18837625
-1.37473188	-0.34015788	-0.43559389	2.29304236
-1.37473188	-0.34015788	-0.21779694	0.25707275
-1.37473188	-0.34015788	0.00000000	2.17032314
-1.37473188	-0.34015788	0.21779694	0.25707258
-1.37473188	-0.34015788	0.43559389	2.29304236
-1.37473188	-0.34015788	0.65339083	0.18837712
-1.37473188	-0.34015788	0.87118777	0.11626910
-1.37473188	-0.11338596	-0.94378675	0.00462812
-1.37473188	-0.11338596	-0.72598981	3.88309047
-1.37473188	-0.11338596	-0.50819287	0.00743267
-1.37473188	-0.11338596	-0.29039592	1.11565862
-1.37473188	-0.11338596	-0.07259898	0.00931631
-1.37473188	-0.11338596	0.14519796	1.11151903
-1.37473188	-0.11338596	0.36299491	0.00829583
-1.37473188	-0.11338596	0.58079185	1.93873958
-1.37473188	-0.11338596	0.79858879	0.00551859
-1.37473188	0.11338596	-0.79858879	0.00551848
-1.37473188	0.11338596	-0.58079185	1.93873958
-1.37473188	0.11338596	-0.36299491	0.00829596
-1.37473188	0.11338596	-0.14519796	1.11151903
-1.37473188	0.11338596	0.07259898	0.00931634
-1.37473188	0.11338596	0.29039592	1.11565862
-1.37473188	0.11338596	0.50819287	0.00743266
-1.37473188	0.11338596	0.72598981	3.88309047
-1.37473188	0.11338596	0.94378675	0.00462800
-1.37473188	0.34015788	-0.87118777	0.11626910
-1.37473188	0.34015788	-0.65339083	0.18837625
-1.37473188	0.34015788	-0.43559389	2.29304236
-1.37473188	0.34015788	-0.21779694	0.25707275
-1.37473188	0.34015788	0.00000000	2.17032314
-1.37473188	0.34015788	0.21779694	0.25707258
-1.37473188	0.34015788	0.43559389	2.29304236
-1.37473188	0.34015788	0.65339083	0.18837712
-1.37473188	0.34015788	0.87118777	0.11626910
-1.37473188	0.56692981	-0.72598981	2.43226247
-1.37473188	0.56692981	-0.50819287	0.03535881
-1.37473188	0.56692981	-0.29039592	1.46072639
-1.37473188	0.56692981	-0.07259898	0.04314181
-1.37473188	0.56692981	0.14519796	0.43940021
-1.37473188	0.56692981	0.36299491	0.03896000
-1.37473188	0.56692981	0.58079185	1.02434687
-1.37473188	0.56692981	0.79858879	0.02713027
-1.37473188	0.79370173	-0.58079185	1.62041085
-1.37473188	0.79370173	-0.14519796	0.97964979
-1.37473188	0.79370173	0.29039592	0.49709893
-1.17834161	-1.13385961	-0.29039592	2.35999464
-1.17834161	-1.13385961	-0.07259898	0.22046553
-1.17834161	-1.13385961	0.14519796	0.00346334
-1.17834161	-1.13385961	0.36299491	0.20238155
-1.17834161	-0.90708769	-0.79858879	0.02713041
-1.17834161	-0.90708769	-0.58079185	1.02434702
-1.17834161	-0.90708769	-0.36299491	0.03896021
-1.17834161	-0.90708769	-0.14519796	0.43940031
-1.17834161	-0.90708769	0.07259898	0.04314205
-1.17834161	-0.90708769	0.29039592	1.46072641
-1.17834161	-0.90708769	0.50819287	0.03535900
-1.17834161	-0.90708769	0.72598981	2.43226275
-1.17834161	-0.68031577	-0.87118777	0.19478908
-1.17834161	-0.68031577	-0.43559389	0.36477479
-1.17834161	-0.68031577	0.00000000	7.07588988
-1.17834161	-0.68031577	0.43559389	0.36477479
-1.17834161	-0.68031577	0.87118777	0.19478908
-1.17834161	-0.45354384	-0.94378675	0.19717688
-1.17834161	-0.45354384	-0.72598981	2.00824285
-1.17834161	-0.45354384	-0.50819287	0.33694103
-1.17834161	-0.45354384	-0.29039592	4.68071750
-1.17834161	-0.45354384	-0.07259898	0.43684244
-1.17834161	-0.45354384	0.14519796	0.04485129
-1.17834161	-0.45354384	0.36299491	0.38215819
-1.17834161	-0.45354384	0.58079185	0.51272628
-1.17834161	-0.45354384	0.79858879	0.24029016
-1.17834161	-0.45354384	1.01638574	2.75508696
-1.17834161	-0.22677192	-1.01638574	2.39058389
-1.17834161	-0.22677192	-0.79858879	0.14950812
-1.17834161	-0.22677192	-0.58079185	1.06317715
-1.17834161	-0.22677192	-0.36299491	0.24584864
-1.17834161	-0.22677192	-0.14519796	0.29678883
-1.17834161	-0.22677192	0.07259898	0.28408509
-1.17834161	-0.22677192	0.29039592	4.07926898
-1.17834161	-0.22677192	0.50819287	0.21467901
-1.17834161	-0.22677192	0.72598981	3.05781704
-1.17834161	-0.22677192	0.94378675	0.12114386
-1.17834161	-0.22677192	1.16158370	0.41404561
-1.17834161	0.00000000	-1.08898472	0.00127214
-1.17834161	0.00000000	-0.87118777	0.36306727
-1.17834161	0.00000000	-0.65339083	0.00240604
-1.17834161	0.00000000	-0.43559389	0.37798874
-1.17834161	0.00000000	-0.21779694	0.00362405
-1.17834161	0.00000000	0.00000000	11.81201965
-1.17834161	0.00000000	0.21779694	0.00362402
-1.17834161	0.00000000	0.43559389	0.37798874
-1.17834161	0.00000000	0.65339083	0.00240616
-1.17834161	0.00000000	0.87118777	0.36306727
-1.17834161	0.00000000	1.08898472	0.00127204
-1.17834161	0.22677192	-1.16158370	0.41404561
-1.17834161	0.22677192	-0.94378675	0.12114313
-1.17834161	0.22677192	-0.72598981	3.05781704
-1.17834161	0.22677192	-0.50819287	0.21467890
-1.17834161	0.22677192	-0.29039592	4.07926898
-1.17834161	0.22677192	-0.07259898	0.28408524
-1.17834161	0.22677192	0.14519796	0.29678883
-1.17834161	0.22677192	0.36299491	0.24584947
-1.17834161	0.22677192	0.58079185	1.06317715
-1.17834161	0.22677192	0.79858879	0.14950746
-1.17834161	0.22677192	1.01638574	2.39058389
-1.17834161	0.45354384	-1.01638574	2.75508696
-1.17834161	0.45354384	-0.79858879	0.24029095
-1.17834161	0.45354384	-0.58079185	0.51272628
-1.17834161	0.45354384	-0.36299491	0.38215723
-1.17834161	0.45354384	-0.14519796	0.04485129
-1.17834161	0.45354384	0.07259898	0.43684227
-1.17834161	0.45354384	0.29039592	4.68071750
-1.17834161	0.45354384	0.50819287	0.33694116
-1.17834161	0.45354384	0.72598981	2.00824285
-1.17834161	0.45354384	0.94378675	0.19717776
-1.17834161	0.68031577	-0.87118777	0.19478908
-1.17834161	0.68031577	-0.43559389	0.36477479
-1.17834161	0.68031577	0.00000000	7.07588988
-1.17834161	0.68031577	0.43559389	0.36477479
-1.17834161	0.68031577	0.87118777	0.19478908
-1.17834161	0.90708769	-0.72598981	2.43226275
-1.17834161	0.90708769	-0.50819287	0.03535897
-1.17834161	0.90708769	-0.29039592	1.46072641
-1.17834161	0.90708769	-0.07259898	0.04314209
-1.17834161	0.90708769	0.14519796	0.43940031
-1.17834161	0.90708769	0.36299491	0.03896045
-1.17834161	0.90708769	0.58079185	1.02434702
-1.17834161	0.90708769	0.79858879	0.02713020
-1.17834161	1.13385961	-0.36299491	0.20238107
-1.17834161	1.13385961	-0.14519796	0.00346334
-1.17834161	1.13385961	0.07259898	0.22046544
-1.17834161	1.13385961	0.29039592	2.35999464
-0.98195134	-1.24724557	-0.58079185	0.22567460
-0.98195134	-1.24724557	-0.36299491	0.06772024
-0.98195134	-1.24724557	-0.14519796	0.01004070
-0.98195134	-1.24724557	0.07259898	0.07413648
-0.98195134	-1.24724557	0.29039592	2.47937531
-0.98195134	-1.24724557	0.50819287	0.06211243
-0.98195134	-1.02047365	-0.87118777	0.11627020
-0.98195134	-1.02047365	-0.65339083	0.18837565
-0.98195134	-1.02047365	-0.43559389	2.29304872
-0.98195134	-1.02047365	-0.21779694	0.25707058
-0.98195134	-1.02047365	0.00000000	2.17031717
-0.98195134	-1.02047365	0.21779694	0.25707075
-0.98195134	-1.02047365	0.43559389	2.29304872
-0.98195134	-1.02047365	0.65339083	0.18837478
-0.98195134	-1.02047365	0.87118777	0.11627020
-0.98195134	-0.79370173	-0.94378675	0.19717864
-0.98195134	-0.79370173	-0.72598981	2.00824911
-0.98195134	-0.79370173	-0.50819287	0.33694267
-0.98195134	-0.79370173	-0.29039592	4.68070642
-0.98195134	-0.79370173	-0.07259898	0.43684423
-0.98195134	-0.79370173	0.14519796	0.04485246
-0.98195134	-0.79370173	0.36299491	0.38215894
-0.98195134	-0.79370173	0.58079185	0.51272968
-0.98195134	-0.79370173	0.79858879	0.24029202
-0.98195134	-0.79370173	1.01638574	2.75508125
-0.98195134	-0.56692981	-1.01638574	3.54498869
-0.98195134	-0.56692981	-0.58079185	0.57064191
-0.98195134	-0.56692981	-0.14519796	0.02896078
-0.98195134	-0.56692981	0.29039592	6.69403196
-0.98195134	-0.56692981	0.72598981	2.39125116
-0.98195134	-0.56692981	1.16158370	0.80980894
-0.98195134	-0.34015788	-1.30678166	0.61549090
-0.98195134	-0.34015788	-1.08898472	0.38065751
-0.98195134	-0.34015788	-0.87118777	0.25668529
-0.98195134	-0.34015788	-0.65339083	0.78892949
-0.98195134	-0.34015788	-0.43559389	5.50173322
-0.98195134	-0.34015788	-0.21779694	1.27906456
-0.98195134	-0.34015788	0.00000000	5.04902591
-0.98195134	-0.34015788	0.21779694	1.27906513
-0.98195134	-0.34015788	0.43559389	5.50173322
-0.98195134	-0.34015788	0.65339083	0.78892688
-0.98195134	-0.34015788	0.87118777	0.25668529
-0.98195134	-0.34015788	1.08898472	0.38065962
-0.98195134	-0.34015788	1.30678166	0.61549090
-0.98195134	-0.11338596	-1.37938064	0.05301198
-0.98195134	-0.11338596	-1.16158370	0.95393815
-0.98195134	-0.11338596	-0.94378675	0.11731835
-0.98195134	-0.11338596	-0.72598981	3.25944141
-0.98195134	-0.11338596	-0.50819287	0.23922132
-0.98195134	-0.11338596	-0.29039592	9.35789395
-0.98195134	-0.11338596	-0.07259898	0.34466523
-0.98195134	-0.11338596	0.14519796	0.05538038
-0.98195134	-0.11338596	0.36299491	0.28499681
-0.98195134	-0.11338596	0.58079185	0.82634742
-0.98195134	-0.11338596	0.79858879	0.15181538
-0.98195134	-0.11338596	1.01638574	4.35998926
-0.98195134	-0.11338596	1.23418268	0.06888867
-0.98195134	0.11338596	-1.23418268	0.06888846
-0.98195134	0.11338596	-1.01638574	4.35998926
-0.98195134	0.11338596	-0.79858879	0.15181458
-0.98195134	0.11338596	-0.58079185	0.82634742
-0.98195134	0.11338596	-0.36299491	0.28499795
-0.98195134	0.11338596	-0.14519796	0.05538038
-0.98195134	0.11338596	0.07259898	0.34466545
-0.98195134	0.11338596	0.29039592	9.35789395
-0.98195134	0.11338596	0.50819287	0.23922118
-0.98195134	0.11338596	0.72598981	3.25944141
-0.98195134	0.11338596	0.94378675	0.11731750
-0.98195134	0.11338596	1.16158370	0.95393815
-0.98195134	0.11338596	1.37938064	0.05301289
-0.98195134	0.34015788	-1.30678166	0.61549090
-0.98195134	0.34015788	-1.08898472	0.38065751
-0.98195134	0.34015788	-0.87118777	0.25668529
-0.98195134	0.34015788	-0.65339083	0.78892949
-0.98195134	0.34015788	-0.43559389	5.50173322
-0.98195134	0.34015788	-0.21779694	1.27906456
-0.98195134	0.34015788	0.00000000	5.04902591
-0.98195134	0.34015788	0.21779694	1.27906513
-0.98195134	0.34015788	0.43559389	5.50173322
-0.98195134	0.34015788	0.65339083	0.78892688
-0.98195134	0.34015788	0.87118777	0.25668529
-0.98195134	0.34015788	1.08898472	0.38065962
-0.98195134	0.34015788	1.30678166	0.61549090
-0.98195134	0.56692981	-1.16158370	0.80980894
-0.98195134	0.56692981	-0.72598981	2.39125116
-0.98195134	0.56692981	-0.29039592	6.69403196
-0.98195134	0.56692981	0.14519796	0.02896078
-0.98195134	0.56692981	0.58079185	0.57064191
-0.98195134	0.56692981	1.01638574	3.54498869
-0.98195134	0.79370173	-1.01638574	2.75508125
-0.98195134	0.79370173	-0.79858879	0.24029123
-0.98195134	0.79370173	-0.58079185	0.51272968
-0.98195134	0.79370173	-0.36299491	0.38215990
-0.98195134	0.79370173	-0.14519796	0.04485246
-0.98195134	0.79370173	0.07259898	0.43684440
-0.98195134	0.79370173	0.29039592	4.68070642
-0.98195134	0.79370173	0.50819287	0.33694255
-0.98195134	0.79370173	0.72598981	2.00824911
-0.98195134	0.79370173	0.94378675	0.19717776
-0.98195134	1.02047365	-0.87118777	0.11627020
-0.98195134	1.02047365	-0.65339083	0.18837565
-0.98195134	1.02047365	-0.43559389	2.29304872
-0.98195134	1.02047365	-0.21779694	0.25707058
-0.98195134	1.02047365	0.00000000	2.17031717
-0.98195134	1.02047365	0.21779694	0.25707075
-0.98195134	1.02047365	0.43559389	2.29304872
-0.98195134	1.02047365	0.65339083	0.18837478
-0.98195134	1.02047365	0.87118777	0.11627020
-0.98195134	1.24724557	-0.50819287	0.06211239
-0.98195134	1.24724557	-0.29039592	2.47937531
-0.98195134	1.24724557	-0.07259898	0.07413653
-0.98195134	1.24724557	0.14519796	0.01004070
-0.98195134	1.24724557	0.36299491	0.06772053
-0.98195134	1.24724557	0.58079185	0.22567460
-0.78556107	-1.36063153	-0.43559389	1.33657631
-0.78556107	-1.36063153	-0.21779694	0.18777882
-0.78556107	-1.36063153	0.00000000	1.94979769
-0.78556107	-1.36063153	0.21779694	0.18777870
-0.78556107	-1.36063153	0.43559389	1.33657631
-0.78556107	-1.13385961	-0.94378675	0.00462822
-0.78556107	-1.13385961	-0.72598981	3.88309029
-0.78556107	-1.13385961	-0.50819287	0.00743302
-0.78556107	-1.13385961	-0.29039592	1.11565949
-0.78556107	-1.13385961	-0.07259898	0.00931679
-0.78556107	-1.13385961	0.14519796	1.11151867
-0.78556107	-1.13385961	0.36299491	0.00829636
-0.78556107	-1.13385961	0.58079185	1.93873926
-0.78556107	-1.13385961	0.79858879	0.00551875
-0.78556107	-0.90708769	-1.01638574	2.39058252
-0.78556107	-0.90708769	-0.79858879	0.14950798
-0.78556107	-0.90708769	-0.58079185	1.06317881
-0.78556107	-0.90708769	-0.36299491	0.24585034
-0.78556107	-0.90708769	-0.14519796	0.29678982
-0.78556107	-0.90708769	0.07259898	0.28408625
-0.78556107	-0.90708769	0.29039592	4.07926634
-0.78556107	-0.90708769	0.50819287	0.21467966
-0.78556107	-0.90708769	0.72598981	3.05781979
-0.78556107	-0.90708769	0.94378675	0.12114355
-0.78556107	-0.90708769	1.16158370	0.41404504
-0.78556107	-0.68031577	-1.30678166	0.61549364
-0.78556107	-0.68031577	-1.08898472	0.38066081
-0.78556107	-0.68031577	-0.87118777	0.25668275
-0.78556107	-0.68031577	-0.65339083	0.78892938
-0.78556107	-0.68031577	-0.43559389	5.50171742
-0.78556107	-0.68031577	-0.21779694	1.27906921
-0.78556107	-0.68031577	0.00000000	5.04904422
-0.78556107	-0.68031577	0.21779694	1.27906864
-0.78556107	-0.68031577	0.43559389	5.50171742
-0.78556107	-0.68031577	0.65339083	0.78893199
-0.78556107	-0.68031577	0.87118777	0.25668275
-0.78556107	-0.68031577	1.08898472	0.38065870
-0.78556107	-0.68031577	1.30678166	0.61549364
-0.78556107	-0.45354384	-1.16158370	0.12032877
-0.78556107	-0.45354384	-0.72598981	8.95926198
-0.78556107	-0.45354384	-0.29039592	3.85515445
-0.78556107	-0.45354384	0.14519796	3.11292525
-0.78556107	-0.45354384	0.58079185	4.70674322
-0.78556107	-0.45354384	1.01638574	2.05191306
-0.78556107	-0.22677192	-1.45197962	1.76796485
-0.78556107	-0.22677192	-1.23418268	0.02759543
-0.78556107	-0.22677192	-1.01638574	3.15026742
-0.78556107	-0.22677192	-0.79858879	0.06855720
-0.78556107	-0.22677192	-0.58079185	4.05925909
-0.78556107	-0.22677192	-0.36299491	0.14705742
-0.78556107	-0.22677192	-0.14519796	2.26178832
-0.78556107	-0.22677192	0.07259898	0.18685774
-0.78556107	-0.22677192	0.29039592	7.07032236
-0.78556107	-0.22677192	0.50819287	0.11841683
-0.78556107	-0.22677192	0.72598981	8.60903327
-0.78556107	-0.22677192	0.94378675	0.05072172
-0.78556107	-0.22677192	1.16158370	0.33432619
-0.78556107	-0.22677192	1.37938064	0.02056251
-0.78556107	0.00000000	-1.30678166	0.71641099
-0.78556107	0.00000000	-1.08898472	0.67548948
-0.78556107	0.00000000	-0.87118777	0.55201505
-0.78556107	0.00000000	-0.65339083	1.69468415
-0.78556107	0.00000000	-0.43559389	11.20085096
-0.78556107	0.00000000	-0.21779694	3.27335901
-0.78556107	0.00000000	0.00000000	8.58680879
-0.78556107	0.00000000	0.21779694	3.27335774
-0.78556107	0.00000000	0.43559389	11.20085096
-0.78556107	0.00000000	0.65339083	1.69468908
-0.78556107	0.00000000	0.87118777	0.55201505
-0.78556107	0.00000000	1.08898472	0.67548612
-0.78556107	0.00000000	1.30678166	0.71641099
-0.78556107	0.22677192	-1.37938064	0.02056189
-0.78556107	0.22677192	-1.16158370	0.33432619
-0.78556107	0.22677192	-0.94378675	0.05072237
-0.78556107	0.22677192	-0.72598981	8.60903327
-0.78556107	0.22677192	-0.50819287	0.11841695
-0.78556107	0.22677192	-0.29039592	7.07032236
-0.78556107	0.22677192	-0.07259898	0.18685753
-0.78556107	0.22677192	0.14519796	2.26178832
-0.78556107	0.22677192	0.36299491	0.14705641
-0.78556107	0.22677192	0.58079185	4.05925909
-0.78556107	0.22677192	0.79858879	0.06855783
-0.78556107	0.22677192	1.01638574	3.15026742
-0.78556107	0.22677192	1.23418268	0.02759558
-0.78556107	0.22677192	1.45197962	1.76796485
-0.78556107	0.45354384	-1.01638574	2.05191306
-0.78556107	0.45354384	-0.58079185	4.70674322
-0.78556107	0.45354384	-0.14519796	3.11292525
-0.78556107	0.45354384	0.29039592	3.85515445
-0.78556107	0.45354384	0.72598981	8.95926198
-0.78556107	0.45354384	1.16158370	0.12032877
-0.78556107	0.68031577	-1.30678166	0.61549364
-0.78556107	0.68031577	-1.08898472	0.38066081
-0.78556107	0.68031577	-0.87118777	0.25668275
-0.78556107	0.68031577	-0.65339083	0.78892938
-0.78556107	0.68031577	-0.43559389	5.50171742
-0.78556107	0.68031577	-0.21779694	1.27906921
-0.78556107	0.68031577	0.00000000	5.04904422
-0.78556107	0.68031577	0.21779694	1.27906864
-0.78556107	0.68031577	0.43559389	5.50171742
-0.78556107	0.68031577	0.65339083	0.78893199
-0.78556107	0.68031577	0.87118777	0.25668275
-0.78556107	0.68031577	1.08898472	0.38065870
-0.78556107	0.68031577	1.30678166	0.61549364
-0.78556107	0.90708769	-1.16158370	0.41404504
-0.78556107	0.90708769	-0.94378675	0.12114428
-0.78556107	0.90708769	-0.72598981	3.05781979
-0.78556107	0.90708769	-0.50819287	0.21467976
-0.78556107	0.90708769	-0.29039592	4.07926634
-0.78556107	0.90708769	-0.07259898	0.28408610
-0.78556107	0.90708769	0.14519796	0.29678982
-0.78556107	0.90708769	0.36299491	0.24584951
-0.78556107	0.90708769	0.58079185	1.06317881
-0.78556107	0.90708769	0.79858879	0.14950864
-0.78556107	0.90708769	1.01638574	2.39058252
-0.78556107	1.13385961	-0.79858879	0.00551886
-0.78556107	1.13385961	-0.58079185	1.93873926
-0.78556107	1.13385961	-0.36299491	0.00829624
-0.78556107	1.13385961	-0.14519796	1.11151867
-0.78556107	1.13385961	0.07259898	0.00931677
-0.78556107	1.13385961	0.29039592	1.11565949
-0.78556107	1.13385961	0.50819287	0.00743304
-0.78556107	1.13385961	0.72598981	3.88309029
-0.78556107	1.13385961	0.94378675	0.00462835
-0.78556107	1.36063153	-0.43559389	1.33657631
-0.78556107	1.36063153	-0.21779694	0.18777882
-0.78556107	1.36063153	0.00000000	1.94979769
-0.78556107	1.36063153	0.21779694	0.18777870
-0.78556107	1.36063153	0.43559389	1.33657631
-0.58917080	-1.47401749	-0.50819287	0.06211213
-0.58917080	-1.47401749	-0.29039592	2.47937450
-0.58917080	-1.47401749	-0.07259898	0.07413622
-0.58917080	-1.47401749	0.14519796	0.01004077
-0.58917080	-1.47401749	0.36299491	0.06772024
-0.58917080	-1.47401749	0.58079185	0.22567491
-0.58917080	-1.24724557	-0.79858879	0.00551880
-0.58917080	-1.24724557	-0.58079185	1.93874139
-0.58917080	-1.24724557	-0.36299491	0.00829614
-0.58917080	-1.24724557	-0.14519796	1.11152050
-0.58917080	-1.24724557	0.07259898	0.00931666
-0.58917080	-1.24724557	0.29039592	1.11565782
-0.58917080	-1.24724557	0.50819287	0.00743295
-0.58917080	-1.24724557	0.72598981	3.88309313
-0.58917080	-1.24724557	0.94378675	0.00462829
-0.58917080	-1.02047365	-1.08898472	0.00127217
-0.58917080	-1.02047365	-0.87118777	0.36306653
-0.58917080	-1.02047365	-0.65339083	0.00240642
-0.58917080	-1.02047365	-0.43559389	0.37798990
-0.58917080	-1.02047365	-0.21779694	0.00362441
-0.58917080	-1.02047365	0.00000000	11.81201600
-0.58917080	-1.02047365	0.21779694	0.00362444
-0.58917080	-1.02047365	0.43559389	0.37798990
-0.58917080	-1.02047365	0.65339083	0.00240630
-0.58917080	-1.02047365	0.87118777	0.36306653
-0.58917080	-1.02047365	1.08898472	0.00127228
-0.58917080	-0.79370173	-1.37938064	0.05301263
-0.58917080	-0.79370173	-1.16158370	0.95394022
-0.58917080	-0.79370173	-0.94378675	0.11731692
-0.58917080	-0.79370173	-0.72598981	3.25943648
-0.58917080	-0.79370173	-0.50819287	0.23922002
-0.58917080	-0.79370173	-0.29039592	9.35790783
-0.58917080	-0.79370173	-0.07259898	0.34466379
-0.58917080	-0.79370173	0.14519796	0.05537941
-0.58917080	-0.79370173	0.36299491	0.28499658
-0.58917080	-0.79370173	0.58079185	0.82634451
-0.58917080	-0.79370173	0.79858879	0.15181384
-0.58917080	-0.79370173	1.01638574	4.35999457
-0.58917080	-0.79370173	1.23418268	0.06888812
-0.58917080	-0.56692981	-1.45197962	1.76796522
-0.58917080	-0.56692981	-1.23418268	0.02759568
-0.58917080	-0.56692981	-1.01638574	3.15026696
-0.58917080	-0.56692981	-0.79858879	0.06855808
-0.58917080	-0.56692981	-0.58079185	4.05926054
-0.58917080	-0.56692981	-0.36299491	0.14705695
-0.58917080	-0.56692981	-0.14519796	2.26178966
-0.58917080	-0.56692981	0.07259898	0.18685822
-0.58917080	-0.56692981	0.29039592	7.07032123
-0.58917080	-0.56692981	0.50819287	0.11841739
-0.58917080	-0.56692981	0.72598981	8.60903532
-0.58917080	-0.56692981	0.94378675	0.05072255
-0.58917080	-0.56692981	1.16158370	0.33432603
-0.58917080	-0.56692981	1.37938064	0.02056196
-0.58917080	-0.34015788	-1.30678166	4.59778457
-0.58917080	-0.34015788	-0.87118777	1.56308577
-0.58917080	-0.34015788	-0.43559389	0.26308593
-0.58917080	-0.34015788	0.00000000	55.77349578
-0.58917080	-0.34015788	0.43559389	0.26308593
-0.58917080	-0.34015788	0.87118777	1.56308577
-0.58917080	-0.34015788	1.30678166	4.59778457
-0.58917080	-0.11338596	-1.37938064	0.05592988
-0.58917080	-0.11338596	-1.16158370	1.02229568
-0.58917080	-0.11338596	-0.94378675	0.15831345
-0.58917080	-0.11338596	-0.72598981	8.85414894
-0.58917080	-0.11338596	-0.50819287	0.44982518
-0.58917080	-0.11338596	-0.29039592	20.11746076
-0.58917080	-0.11338596	-0.07259898	0.82156455
-0.58917080	-0.11338596	0.14519796	1.08995426
-0.58917080	-0.11338596	0.36299491	0.59621499
-0.58917080	-0.11338596	0.58079185	3.30091541
-0.58917080	-0.11338596	0.79858879	0.22727079
-0.58917080	-0.11338596	1.01638574	6.14794358
-0.58917080	-0.11338596	1.23418268	0.07807998
-0.58917080	-0.11338596	1.45197962	1.46807297
-0.58917080	0.11338596	-1.45197962	1.46807297
-0.58917080	0.11338596	-1.23418268	0.07808026
-0.58917080	0.11338596	-1.01638574	6.14794358
-0.58917080	0.11338596	-0.79858879	0.22727218
-0.58917080	0.11338596	-0.58079185	3.30091541
-0.58917080	0.11338596	-0.36299491	0.59621232
-0.58917080	0.11338596	-0.14519796	1.08995426
-0.58917080	0.11338596	0.07259898	0.82156396
-0.58917080	0.11338596	0.29039592	20.11746076
-0.58917080	0.11338596	0.50819287	0.44982547
-0.58917080	0.11338596	0.72598981	8.85414894
-0.58917080	0.11338596	0.94378675	0.15831478
-0.58917080	0.11338596	1.16158370	1.02229568
-0.58917080	0.11338596	1.37938064	0.05592874
-0.58917080	0.34015788	-1.30678166	4.59778457
-0.58917080	0.34015788	-0.87118777	1.56308577
-0.58917080	0.34015788	-0.43559389	0.26308593
-0.58917080	0.34015788	0.00000000	55.77349578
-0.58917080	0.34015788	0.43559389	0.26308593
-0.58917080	0.34015788	0.87118777	1.56308577
-0.58917080	0.34015788	1.30678166	4.59778457
-0.58917080	0.56692981	-1.37938064	0.02056259
-0.58917080	0.56692981	-1.16158370	0.33432603
-0.58917080	0.56692981	-0.94378675	0.05072191
-0.58917080	0.56692981	-0.72598981	8.60903532
-0.58917080	0.56692981	-0.50819287	0.11841727
-0.58917080	0.56692981	-0.29039592	7.07032123
-0.58917080	0.56692981	-0.07259898	0.18685842
-0.58917080	0.56692981	0.14519796	2.26178966
-0.58917080	0.56692981	0.36299491	0.14705796
-0.58917080	0.56692981	0.58079185	4.05926054
-0.58917080	0.56692981	0.79858879	0.06855745
-0.58917080	0.56692981	1.01638574	3.15026696
-0.58917080	0.56692981	1.23418268	0.02759553
-0.58917080	0.56692981	1.45197962	1.76796522
-0.58917080	0.79370173	-1.23418268	0.06888833
-0.58917080	0.79370173	-1.01638574	4.35999457
-0.58917080	0.79370173	-0.79858879	0.15181464
-0.58917080	0.79370173	-0.58079185	0.82634451
-0.58917080	0.79370173	-0.36299491	0.28499544
-0.58917080	0.79370173	-0.14519796	0.05537941
-0.58917080	0.79370173	0.07259898	0.34466357
-0.58917080	0.79370173	0.29039592	9.35790783
-0.58917080	0.79370173	0.50819287	0.23922016
-0.58917080	0.79370173	0.72598981	3.25943648
-0.58917080	0.79370173	0.94378675	0.11731778
-0.58917080	0.79370173	1.16158370	0.95394022
-0.58917080	0.79370173	1.37938064	0.05301172
-0.58917080	1.02047365	-1.08898472	0.00127217
-0.58917080	1.02047365	-0.87118777	0.36306653
-0.58917080	1.02047365	-0.65339083	0.00240642
-0.58917080	1.02047365	-0.43559389	0.37798990
-0.58917080	1.02047365	-0.21779694	0.00362441
-0.58917080	1.02047365	0.00000000	11.81201600
-0.58917080	1.02047365	0.21779694	0.00362444
-0.58917080	1.02047365	0.43559389	0.37798990
-0.58917080	1.02047365	0.65339083	0.00240630
-0.58917080	1.02047365	0.87118777	0.36306653
-0.58917080	1.02047365	1.08898472	0.00127228
-0.58917080	1.24724557	-0.94378675	0.00462817
-0.58917080	1.24724557	-0.72598981	3.88309313
-0.58917080	1.24724557	-0.50819287	0.00743293
-0.58917080	1.24724557	-0.29039592	1.11565782
-0.58917080	1.24724557	-0.07259898	0.00931668
-0.58917080	1.24724557	0.14519796	1.11152050
-0.58917080	1.24724557	0.36299491	0.00829627
-0.58917080	1.24724557	0.58079185	1.93874139
-0.58917080	1.24724557	0.79858879	0.00551869
-0.58917080	1.47401749	-0.58079185	0.22567491
-0.58917080	1.47401749	-0.36299491	0.06771996
-0.58917080	1.47401749	-0.14519796	0.01004077
-0.58917080	1.47401749	0.07259898	0.07413617
-0.58917080	1.47401749	0.29039592	2.47937450
-0.58917080	1.47401749	0.50819287	0.06211217
-0.39278054	-1.58740345	-0.36299491	0.20238204
-0.39278054	-1.58740345	-0.14519796	0.00346339
-0.39278054	-1.58740345	0.07259898	0.22046650
-0.39278054	-1.58740345	0.29039592	2.35999360
-0.39278054	-1.36063153	-0.87118777	0.11626980
-0.39278054	-1.36063153	-0.65339083	0.18837572
-0.39278054	-1.36063153	-0.43559389	2.29304678
-0.39278054	-1.36063153	-0.21779694	0.25707068
-0.39278054	-1.36063153	0.00000000	2.17031988
-0.39278054	-1.36063153	0.21779694	0.25707084
-0.39278054	-1.36063153	0.43559389	2.29304678
-0.39278054	-1.36063153	0.65339083	0.18837484
-0.39278054	-1.36063153	0.87118777	0.11626980
-0.39278054	-1.13385961	-1.16158370	0.41404474
-0.39278054	-1.13385961	-0.94378675	0.12114408
-0.39278054	-1.13385961	-0.72598981	3.05782128
-0.39278054	-1.13385961	-0.50819287	0.21467942
-0.39278054	-1.13385961	-0.29039592	4.07926499
-0.39278054	-1.13385961	-0.07259898	0.28408564
-0.39278054	-1.13385961	0.14519796	0.29679035
-0.39278054	-1.13385961	0.36299491	0.24584912
-0.39278054	-1.13385961	0.58079185	1.06317970
-0.39278054	-1.13385961	0.79858879	0.14950840
-0.39278054	-1.13385961	1.01638574	2.39058181
-0.39278054	-0.90708769	-1.23418268	0.06888864
-0.39278054	-0.90708769	-1.01638574	4.35999421
-0.39278054	-0.90708769	-0.79858879	0.15181533
-0.39278054	-0.90708769	-0.58079185	0.82634487
-0.39278054	-0.90708769	-0.36299491	0.28499674
-0.39278054	-0.90708769	-0.14519796	0.05537951
-0.39278054	-0.90708769	0.07259898	0.34466515
-0.39278054	-0.90708769	0.29039592	9.35790707
-0.39278054	-0.90708769	0.50819287	0.23922125
-0.39278054	-0.90708769	0.72598981	3.25943720
-0.39278054	-0.90708769	0.94378675	0.11731831
-0.39278054	-0.90708769	1.16158370	0.95394004
-0.39278054	-0.90708769	1.37938064	0.05301196
-0.39278054	-0.68031577	-1.30678166	0.71640891
-0.39278054	-0.68031577	-1.08898472	0.67548405
-0.39278054	-0.68031577	-0.87118777	0.55201810
-0.39278054	-0.68031577	-0.65339083	1.69468398
-0.39278054	-0.68031577	-0.43559389	11.20087328
-0.39278054	-0.68031577	-0.21779694	3.27334807
-0.39278054	-0.68031577	0.00000000	8.58678890
-0.39278054	-0.68031577	0.21779694	3.27334933
-0.39278054	-0.68031577	0.43559389	11.20087328
-0.39278054	-0.68031577	0.65339083	1.69467904
-0.39278054	-0.68031577	0.87118777	0.55201810
-0.39278054	-0.68031577	1.08898472	0.67548741
-0.39278054	-0.68031577	1.30678166	0.71640891
-0.39278054	-0.45354384	-1.37938064	0.05592889
-0.39278054	-0.45354384	-1.16158370	1.02229430
-0.39278054	-0.45354384	-0.94378675	0.15831521
-0.39278054	-0.45354384	-0.72598981	8.85415664
-0.39278054	-0.45354384	-0.50819287	0.44982668
-0.39278054	-0.45354384	-0.29039592	20.11744595
-0.39278054	-0.45354384	-0.07259898	0.82156620
-0.39278054	-0.45354384	0.14519796	1.08995865
-0.39278054	-0.45354384	0.36299491	0.59621394
-0.39278054	-0.45354384	0.58079185	3.30092083
-0.39278054	-0.45354384	0.79858879	0.22727279
-0.39278054	-0.45354384	1.01638574	6.14793971
-0.39278054	-0.45354384	1.23418268	0.07808047
-0.39278054	-0.45354384	1.45197962	1.46807423
-0.39278054	-0.22677192	-1.45197962	1.42246638
-0.39278054	-0.22677192	-1.01638574	8.08241393
-0.39278054	-0.22677192	-0.58079185	3.30784356
-0.39278054	-0.22677192	-0.14519796	0.88465010
-0.39278054	-0.22677192	0.29039592	34.86884918
-0.39278054	-0.22677192	0.72598981	9.73755119
-0.39278054	-0.22677192	1.16158370	1.45629564
-0.39278054	-0.22677192	1.59717758	0.38573350
-0.39278054	0.00000000	-1.52457860	0.46819652
-0.39278054	0.00000000	-1.30678166	0.92963825
-0.39278054	0.00000000	-1.08898472	1.39746378
-0.39278054	0.00000000	-0.87118777	1.17105390
-0.39278054	0.00000000	-0.65339083	4.82051754
-0.39278054	0.00000000	-0.43559389	30.11182097
-0.39278054	0.00000000	-0.21779694	13.33339853
-0.39278054	0.00000000	0.00000000	31.88265261
-0.39278054	0.00000000	0.21779694	13.33340317
-0.39278054	0.00000000	0.43559389	30.11182097
-0.39278054	0.00000000	0.65339083	4.82050570
-0.39278054	0.00000000	0.87118777	1.17105390
-0.39278054	0.00000000	1.08898472	1.39746980
-0.39278054	0.00000000	1.30678166	0.92963825
-0.39278054	0.00000000	1.52457860	0.46819550
-0.39278054	0.22677192	-1.59717758	0.38573350
-0.39278054	0.22677192	-1.16158370	1.45629564