Position data Generated by SPaMD
30	atoms
2	atom types
0.000000		5.091902	xlo xhi
0.000000		4.409717	ylo yhi
0.000000		13.774298	zlo zhi
-2.545951		0.000000	0.000000	xy xz yz

Atoms

1	1	0.000000	2.939811	7.183152
2	1	0.000000	0.000000	8.886862
3	1	-0.000000	2.939811	11.182579
4	1	2.545951	1.469906	9.478868
5	1	0.000000	0.000000	11.774584
6	1	2.545951	1.469906	13.478295
7	1	0.000000	0.000000	1.999714
8	1	0.000000	2.939811	0.296003
9	1	2.545951	1.469906	2.591719
10	1	0.000000	2.939811	4.295430
11	1	2.545951	1.469906	6.591146
12	1	0.000000	0.000000	4.887435
13	2	1.768415	3.062985	10.330723
14	2	1.555071	0.000000	10.330723
15	2	3.323487	0.123174	8.035007
16	2	0.990880	1.469906	8.035007
17	2	3.323487	2.816637	8.035007
18	2	-0.777536	1.346731	10.330723
19	2	1.768415	0.123174	1.147858
20	2	4.101023	1.469906	1.147858
21	2	0.777536	1.593080	12.626440
22	2	-1.555071	2.939811	12.626440
23	2	0.777536	4.286542	12.626440
24	2	1.768415	2.816637	1.147858
25	2	-0.777536	1.593080	5.739291
26	2	1.555071	2.939811	5.739291
27	2	-1.768415	3.062985	3.443574
28	2	3.536831	0.000000	3.443574
29	2	0.777536	1.346731	3.443574
30	2	-0.777536	4.286542	5.739291
