Position data Generated by SPaMD
1008	atoms
1	atom types
0.000000		33.955268	xlo xhi
0.000000		35.645606	ylo yhi
0.000000		8.401750	zlo zhi
0.000000		0.000000	0.000000	xy xz yz

Atoms

1	1	0.000000	3.960623	1.400292
2	1	0.000000	0.000000	0.000000
3	1	0.000000	1.980311	2.800583
4	1	1.212688	3.960623	3.500729
5	1	1.212688	1.980311	0.700146
6	1	1.212688	0.000000	2.100437
7	1	0.000000	3.960623	5.601167
8	1	0.000000	0.000000	4.200875
9	1	0.000000	1.980311	7.001458
10	1	1.212688	3.960623	7.701604
11	1	1.212688	1.980311	4.901021
12	1	1.212688	0.000000	6.301312
13	1	0.000000	9.901557	1.400292
14	1	0.000000	5.940934	0.000000
15	1	0.000000	7.921246	2.800583
16	1	1.212688	9.901557	3.500729
17	1	1.212688	7.921246	0.700146
18	1	1.212688	5.940934	2.100437
19	1	0.000000	9.901557	5.601167
20	1	0.000000	5.940934	4.200875
21	1	0.000000	7.921246	7.001458
22	1	1.212688	9.901557	7.701604
23	1	1.212688	7.921246	4.901021
24	1	1.212688	5.940934	6.301312
25	1	0.000000	15.842491	1.400292
26	1	0.000000	11.881869	0.000000
27	1	0.000000	13.862180	2.800583
28	1	1.212688	15.842491	3.500729
29	1	1.212688	13.862180	0.700146
30	1	1.212688	11.881869	2.100437
31	1	0.000000	15.842491	5.601167
32	1	0.000000	11.881869	4.200875
33	1	0.000000	13.862180	7.001458
34	1	1.212688	15.842491	7.701604
35	1	1.212688	13.862180	4.901021
36	1	1.212688	11.881869	6.301312
37	1	0.000000	21.783426	1.400292
38	1	0.000000	17.822803	0.000000
39	1	0.000000	19.803114	2.800583
40	1	1.212688	21.783426	3.500729
41	1	1.212688	19.803114	0.700146
42	1	1.212688	17.822803	2.100437
43	1	0.000000	21.783426	5.601167
44	1	0.000000	17.822803	4.200875
45	1	0.000000	19.803114	7.001458
46	1	1.212688	21.783426	7.701604
47	1	1.212688	19.803114	4.901021
48	1	1.212688	17.822803	6.301312
49	1	0.000000	27.724360	1.400292
50	1	0.000000	23.763737	0.000000
51	1	0.000000	25.744049	2.800583
52	1	1.212688	27.724360	3.500729
53	1	1.212688	25.744049	0.700146
54	1	1.212688	23.763737	2.100437
55	1	0.000000	27.724360	5.601167
56	1	0.000000	23.763737	4.200875
57	1	0.000000	25.744049	7.001458
58	1	1.212688	27.724360	7.701604
59	1	1.212688	25.744049	4.901021
60	1	1.212688	23.763737	6.301312
61	1	0.000000	33.665294	1.400292
62	1	0.000000	29.704671	0.000000
63	1	0.000000	31.684983	2.800583
64	1	1.212688	33.665294	3.500729
65	1	1.212688	31.684983	0.700146
66	1	1.212688	29.704671	2.100437
67	1	0.000000	33.665294	5.601167
68	1	0.000000	29.704671	4.200875
69	1	0.000000	31.684983	7.001458
70	1	1.212688	33.665294	7.701604
71	1	1.212688	31.684983	4.901021
72	1	1.212688	29.704671	6.301312
73	1	2.425376	3.960623	1.400292
74	1	2.425376	0.000000	0.000000
75	1	2.425376	1.980311	2.800583
76	1	3.638064	3.960623	3.500729
77	1	3.638064	1.980311	0.700146
78	1	3.638064	0.000000	2.100437
79	1	2.425376	3.960623	5.601167
80	1	2.425376	0.000000	4.200875
81	1	2.425376	1.980311	7.001458
82	1	3.638064	3.960623	7.701604
83	1	3.638064	1.980311	4.901021
84	1	3.638064	0.000000	6.301312
85	1	2.425376	9.901557	1.400292
86	1	2.425376	5.940934	0.000000
87	1	2.425376	7.921246	2.800583
88	1	3.638064	9.901557	3.500729
89	1	3.638064	7.921246	0.700146
90	1	3.638064	5.940934	2.100437
91	1	2.425376	9.901557	5.601167
92	1	2.425376	5.940934	4.200875
93	1	2.425376	7.921246	7.001458
94	1	3.638064	9.901557	7.701604
95	1	3.638064	7.921246	4.901021
96	1	3.638064	5.940934	6.301312
97	1	2.425376	15.842491	1.400292
98	1	2.425376	11.881869	0.000000
99	1	2.425376	13.862180	2.800583
100	1	3.638064	15.842491	3.500729
101	1	3.638064	13.862180	0.700146
102	1	3.638064	11.881869	2.100437
103	1	2.425376	15.842491	5.601167
104	1	2.425376	11.881869	4.200875
105	1	2.425376	13.862180	7.001458
106	1	3.638064	15.842491	7.701604
107	1	3.638064	13.862180	4.901021
108	1	3.638064	11.881869	6.301312
109	1	2.425376	21.783426	1.400292
110	1	2.425376	17.822803	0.000000
111	1	2.425376	19.803114	2.800583
112	1	3.638064	21.783426	3.500729
113	1	3.638064	19.803114	0.700146
114	1	3.638064	17.822803	2.100437
115	1	2.425376	21.783426	5.601167
116	1	2.425376	17.822803	4.200875
117	1	2.425376	19.803114	7.001458
118	1	3.638064	21.783426	7.701604
119	1	3.638064	19.803114	4.901021
120	1	3.638064	17.822803	6.301312
121	1	2.425376	27.724360	1.400292
122	1	2.425376	23.763737	0.000000
123	1	2.425376	25.744049	2.800583
124	1	3.638064	27.724360	3.500729
125	1	3.638064	25.744049	0.700146
126	1	3.638064	23.763737	2.100437
127	1	2.425376	27.724360	5.601167
128	1	2.425376	23.763737	4.200875
129	1	2.425376	25.744049	7.001458
130	1	3.638064	27.724360	7.701604
131	1	3.638064	25.744049	4.901021
132	1	3.638064	23.763737	6.301312
133	1	2.425376	33.665294	1.400292
134	1	2.425376	29.704671	0.000000
135	1	2.425376	31.684983	2.800583
136	1	3.638064	33.665294	3.500729
137	1	3.638064	31.684983	0.700146
138	1	3.638064	29.704671	2.100437
139	1	2.425376	33.665294	5.601167
140	1	2.425376	29.704671	4.200875
141	1	2.425376	31.684983	7.001458
142	1	3.638064	33.665294	7.701604
143	1	3.638064	31.684983	4.901021
144	1	3.638064	29.704671	6.301312
145	1	4.850753	3.960623	1.400292
146	1	4.850753	0.000000	0.000000
147	1	4.850753	1.980311	2.800583
148	1	6.063441	3.960623	3.500729
149	1	6.063441	1.980311	0.700146
150	1	6.063441	0.000000	2.100437
151	1	4.850753	3.960623	5.601167
152	1	4.850753	0.000000	4.200875
153	1	4.850753	1.980311	7.001458
154	1	6.063441	3.960623	7.701604
155	1	6.063441	1.980311	4.901021
156	1	6.063441	0.000000	6.301312
157	1	4.850753	9.901557	1.400292
158	1	4.850753	5.940934	0.000000
159	1	4.850753	7.921246	2.800583
160	1	6.063441	9.901557	3.500729
161	1	6.063441	7.921246	0.700146
162	1	6.063441	5.940934	2.100437
163	1	4.850753	9.901557	5.601167
164	1	4.850753	5.940934	4.200875
165	1	4.850753	7.921246	7.001458
166	1	6.063441	9.901557	7.701604
167	1	6.063441	7.921246	4.901021
168	1	6.063441	5.940934	6.301312
169	1	4.850753	15.842491	1.400292
170	1	4.850753	11.881869	0.000000
171	1	4.850753	13.862180	2.800583
172	1	6.063441	15.842491	3.500729
173	1	6.063441	13.862180	0.700146
174	1	6.063441	11.881869	2.100437
175	1	4.850753	15.842491	5.601167
176	1	4.850753	11.881869	4.200875
177	1	4.850753	13.862180	7.001458
178	1	6.063441	15.842491	7.701604
179	1	6.063441	13.862180	4.901021
180	1	6.063441	11.881869	6.301312
181	1	4.850753	21.783426	1.400292
182	1	4.850753	17.822803	0.000000
183	1	4.850753	19.803114	2.800583
184	1	6.063441	21.783426	3.500729
185	1	6.063441	19.803114	0.700146
186	1	6.063441	17.822803	2.100437
187	1	4.850753	21.783426	5.601167
188	1	4.850753	17.822803	4.200875
189	1	4.850753	19.803114	7.001458
190	1	6.063441	21.783426	7.701604
191	1	6.063441	19.803114	4.901021
192	1	6.063441	17.822803	6.301312
193	1	4.850753	27.724360	1.400292
194	1	4.850753	23.763737	0.000000
195	1	4.850753	25.744049	2.800583
196	1	6.063441	27.724360	3.500729
197	1	6.063441	25.744049	0.700146
198	1	6.063441	23.763737	2.100437
199	1	4.850753	27.724360	5.601167
200	1	4.850753	23.763737	4.200875
201	1	4.850753	25.744049	7.001458
202	1	6.063441	27.724360	7.701604
203	1	6.063441	25.744049	4.901021
204	1	6.063441	23.763737	6.301312
205	1	4.850753	33.665294	1.400292
206	1	4.850753	29.704671	0.000000
207	1	4.850753	31.684983	2.800583
208	1	6.063441	33.665294	3.500729
209	1	6.063441	31.684983	0.700146
210	1	6.063441	29.704671	2.100437
211	1	4.850753	33.665294	5.601167
212	1	4.850753	29.704671	4.200875
213	1	4.850753	31.684983	7.001458
214	1	6.063441	33.665294	7.701604
215	1	6.063441	31.684983	4.901021
216	1	6.063441	29.704671	6.301312
217	1	7.276129	3.960623	1.400292
218	1	7.276129	0.000000	0.000000
219	1	7.276129	1.980311	2.800583
220	1	8.488817	3.960623	3.500729
221	1	8.488817	1.980311	0.700146
222	1	8.488817	0.000000	2.100437
223	1	7.276129	3.960623	5.601167
224	1	7.276129	0.000000	4.200875
225	1	7.276129	1.980311	7.001458
226	1	8.488817	3.960623	7.701604
227	1	8.488817	1.980311	4.901021
228	1	8.488817	0.000000	6.301312
229	1	7.276129	9.901557	1.400292
230	1	7.276129	5.940934	0.000000
231	1	7.276129	7.921246	2.800583
232	1	8.488817	9.901557	3.500729
233	1	8.488817	7.921246	0.700146
234	1	8.488817	5.940934	2.100437
235	1	7.276129	9.901557	5.601167
236	1	7.276129	5.940934	4.200875
237	1	7.276129	7.921246	7.001458
238	1	8.488817	9.901557	7.701604
239	1	8.488817	7.921246	4.901021
240	1	8.488817	5.940934	6.301312
241	1	7.276129	15.842491	1.400292
242	1	7.276129	11.881869	0.000000
243	1	7.276129	13.862180	2.800583
244	1	8.488817	15.842491	3.500729
245	1	8.488817	13.862180	0.700146
246	1	8.488817	11.881869	2.100437
247	1	7.276129	15.842491	5.601167
248	1	7.276129	11.881869	4.200875
249	1	7.276129	13.862180	7.001458
250	1	8.488817	15.842491	7.701604
251	1	8.488817	13.862180	4.901021
252	1	8.488817	11.881869	6.301312
253	1	7.276129	21.783426	1.400292
254	1	7.276129	17.822803	0.000000
255	1	7.276129	19.803114	2.800583
256	1	8.488817	21.783426	3.500729
257	1	8.488817	19.803114	0.700146
258	1	8.488817	17.822803	2.100437
259	1	7.276129	21.783426	5.601167
260	1	7.276129	17.822803	4.200875
261	1	7.276129	19.803114	7.001458
262	1	8.488817	21.783426	7.701604
263	1	8.488817	19.803114	4.901021
264	1	8.488817	17.822803	6.301312
265	1	7.276129	27.724360	1.400292
266	1	7.276129	23.763737	0.000000
267	1	7.276129	25.744049	2.800583
268	1	8.488817	27.724360	3.500729
269	1	8.488817	25.744049	0.700146
270	1	8.488817	23.763737	2.100437
271	1	7.276129	27.724360	5.601167
272	1	7.276129	23.763737	4.200875
273	1	7.276129	25.744049	7.001458
274	1	8.488817	27.724360	7.701604
275	1	8.488817	25.744049	4.901021
276	1	8.488817	23.763737	6.301312
277	1	7.276129	33.665294	1.400292
278	1	7.276129	29.704671	0.000000
279	1	7.276129	31.684983	2.800583
280	1	8.488817	33.665294	3.500729
281	1	8.488817	31.684983	0.700146
282	1	8.488817	29.704671	2.100437
283	1	7.276129	33.665294	5.601167
284	1	7.276129	29.704671	4.200875
285	1	7.276129	31.684983	7.001458
286	1	8.488817	33.665294	7.701604
287	1	8.488817	31.684983	4.901021
288	1	8.488817	29.704671	6.301312
289	1	9.701505	3.960623	1.400292
290	1	9.701505	0.000000	0.000000
291	1	9.701505	1.980311	2.800583
292	1	10.914193	3.960623	3.500729
293	1	10.914193	1.980311	0.700146
294	1	10.914193	0.000000	2.100437
295	1	9.701505	3.960623	5.601167
296	1	9.701505	0.000000	4.200875
297	1	9.701505	1.980311	7.001458
298	1	10.914193	3.960623	7.701604
299	1	10.914193	1.980311	4.901021
300	1	10.914193	0.000000	6.301312
301	1	9.701505	9.901557	1.400292
302	1	9.701505	5.940934	0.000000
303	1	9.701505	7.921246	2.800583
304	1	10.914193	9.901557	3.500729
305	1	10.914193	7.921246	0.700146
306	1	10.914193	5.940934	2.100437
307	1	9.701505	9.901557	5.601167
308	1	9.701505	5.940934	4.200875
309	1	9.701505	7.921246	7.001458
310	1	10.914193	9.901557	7.701604
311	1	10.914193	7.921246	4.901021
312	1	10.914193	5.940934	6.301312
313	1	9.701505	15.842491	1.400292
314	1	9.701505	11.881869	0.000000
315	1	9.701505	13.862180	2.800583
316	1	10.914193	15.842491	3.500729
317	1	10.914193	13.862180	0.700146
318	1	10.914193	11.881869	2.100437
319	1	9.701505	15.842491	5.601167
320	1	9.701505	11.881869	4.200875
321	1	9.701505	13.862180	7.001458
322	1	10.914193	15.842491	7.701604
323	1	10.914193	13.862180	4.901021
324	1	10.914193	11.881869	6.301312
325	1	9.701505	21.783426	1.400292
326	1	9.701505	17.822803	0.000000
327	1	9.701505	19.803114	2.800583
328	1	10.914193	21.783426	3.500729
329	1	10.914193	19.803114	0.700146
330	1	10.914193	17.822803	2.100437
331	1	9.701505	21.783426	5.601167
332	1	9.701505	17.822803	4.200875
333	1	9.701505	19.803114	7.001458
334	1	10.914193	21.783426	7.701604
335	1	10.914193	19.803114	4.901021
336	1	10.914193	17.822803	6.301312
337	1	9.701505	27.724360	1.400292
338	1	9.701505	23.763737	0.000000
339	1	9.701505	25.744049	2.800583
340	1	10.914193	27.724360	3.500729
341	1	10.914193	25.744049	0.700146
342	1	10.914193	23.763737	2.100437
343	1	9.701505	27.724360	5.601167
344	1	9.701505	23.763737	4.200875
345	1	9.701505	25.744049	7.001458
346	1	10.914193	27.724360	7.701604
347	1	10.914193	25.744049	4.901021
348	1	10.914193	23.763737	6.301312
349	1	9.701505	33.665294	1.400292
350	1	9.701505	29.704671	0.000000
351	1	9.701505	31.684983	2.800583
352	1	10.914193	33.665294	3.500729
353	1	10.914193	31.684983	0.700146
354	1	10.914193	29.704671	2.100437
355	1	9.701505	33.665294	5.601167
356	1	9.701505	29.704671	4.200875
357	1	9.701505	31.684983	7.001458
358	1	10.914193	33.665294	7.701604
359	1	10.914193	31.684983	4.901021
360	1	10.914193	29.704671	6.301312
361	1	12.126881	3.960623	1.400292
362	1	12.126881	0.000000	0.000000
363	1	12.126881	1.980311	2.800583
364	1	13.339569	3.960623	3.500729
365	1	13.339569	1.980311	0.700146
366	1	13.339569	0.000000	2.100437
367	1	12.126881	3.960623	5.601167
368	1	12.126881	0.000000	4.200875
369	1	12.126881	1.980311	7.001458
370	1	13.339569	3.960623	7.701604
371	1	13.339569	1.980311	4.901021
372	1	13.339569	0.000000	6.301312
373	1	12.126881	9.901557	1.400292
374	1	12.126881	5.940934	0.000000
375	1	12.126881	7.921246	2.800583
376	1	13.339569	9.901557	3.500729
377	1	13.339569	7.921246	0.700146
378	1	13.339569	5.940934	2.100437
379	1	12.126881	9.901557	5.601167
380	1	12.126881	5.940934	4.200875
381	1	12.126881	7.921246	7.001458
382	1	13.339569	9.901557	7.701604
383	1	13.339569	7.921246	4.901021
384	1	13.339569	5.940934	6.301312
385	1	12.126881	15.842491	1.400292
386	1	12.126881	11.881869	0.000000
387	1	12.126881	13.862180	2.800583
388	1	13.339569	15.842491	3.500729
389	1	13.339569	13.862180	0.700146
390	1	13.339569	11.881869	2.100437
391	1	12.126881	15.842491	5.601167
392	1	12.126881	11.881869	4.200875
393	1	12.126881	13.862180	7.001458
394	1	13.339569	15.842491	7.701604
395	1	13.339569	13.862180	4.901021
396	1	13.339569	11.881869	6.301312
397	1	12.126881	21.783426	1.400292
398	1	12.126881	17.822803	0.000000
399	1	12.126881	19.803114	2.800583
400	1	13.339569	21.783426	3.500729
401	1	13.339569	19.803114	0.700146
402	1	13.339569	17.822803	2.100437
403	1	12.126881	21.783426	5.601167
404	1	12.126881	17.822803	4.200875
405	1	12.126881	19.803114	7.001458
406	1	13.339569	21.783426	7.701604
407	1	13.339569	19.803114	4.901021
408	1	13.339569	17.822803	6.301312
409	1	12.126881	27.724360	1.400292
410	1	12.126881	23.763737	0.000000
411	1	12.126881	25.744049	2.800583
412	1	13.339569	27.724360	3.500729
413	1	13.339569	25.744049	0.700146
414	1	13.339569	23.763737	2.100437
415	1	12.126881	27.724360	5.601167
416	1	12.126881	23.763737	4.200875
417	1	12.126881	25.744049	7.001458
418	1	13.339569	27.724360	7.701604
419	1	13.339569	25.744049	4.901021
420	1	13.339569	23.763737	6.301312
421	1	12.126881	33.665294	1.400292
422	1	12.126881	29.704671	0.000000
423	1	12.126881	31.684983	2.800583
424	1	13.339569	33.665294	3.500729
425	1	13.339569	31.684983	0.700146
426	1	13.339569	29.704671	2.100437
427	1	12.126881	33.665294	5.601167
428	1	12.126881	29.704671	4.200875
429	1	12.126881	31.684983	7.001458
430	1	13.339569	33.665294	7.701604
431	1	13.339569	31.684983	4.901021
432	1	13.339569	29.704671	6.301312
433	1	14.552258	3.960623	1.400292
434	1	14.552258	0.000000	0.000000
435	1	14.552258	1.980311	2.800583
436	1	15.764946	3.960623	3.500729
437	1	15.764946	1.980311	0.700146
438	1	15.764946	0.000000	2.100437
439	1	14.552258	3.960623	5.601167
440	1	14.552258	0.000000	4.200875
441	1	14.552258	1.980311	7.001458
442	1	15.764946	3.960623	7.701604
443	1	15.764946	1.980311	4.901021
444	1	15.764946	0.000000	6.301312
445	1	14.552258	9.901557	1.400292
446	1	14.552258	5.940934	0.000000
447	1	14.552258	7.921246	2.800583
448	1	15.764946	9.901557	3.500729
449	1	15.764946	7.921246	0.700146
450	1	15.764946	5.940934	2.100437
451	1	14.552258	9.901557	5.601167
452	1	14.552258	5.940934	4.200875
453	1	14.552258	7.921246	7.001458
454	1	15.764946	9.901557	7.701604
455	1	15.764946	7.921246	4.901021
456	1	15.764946	5.940934	6.301312
457	1	14.552258	15.842491	1.400292
458	1	14.552258	11.881869	0.000000
459	1	14.552258	13.862180	2.800583
460	1	15.764946	15.842491	3.500729
461	1	15.764946	13.862180	0.700146
462	1	15.764946	11.881869	2.100437
463	1	14.552258	15.842491	5.601167
464	1	14.552258	11.881869	4.200875
465	1	14.552258	13.862180	7.001458
466	1	15.764946	15.842491	7.701604
467	1	15.764946	13.862180	4.901021
468	1	15.764946	11.881869	6.301312
469	1	14.552258	21.783426	1.400292
470	1	14.552258	17.822803	0.000000
471	1	14.552258	19.803114	2.800583
472	1	15.764946	21.783426	3.500729
473	1	15.764946	19.803114	0.700146
474	1	15.764946	17.822803	2.100437
475	1	14.552258	21.783426	5.601167
476	1	14.552258	17.822803	4.200875
477	1	14.552258	19.803114	7.001458
478	1	15.764946	21.783426	7.701604
479	1	15.764946	19.803114	4.901021
480	1	15.764946	17.822803	6.301312
481	1	14.552258	27.724360	1.400292
482	1	14.552258	23.763737	0.000000
483	1	14.552258	25.744049	2.800583
484	1	15.764946	27.724360	3.500729
485	1	15.764946	25.744049	0.700146
486	1	15.764946	23.763737	2.100437
487	1	14.552258	27.724360	5.601167
488	1	14.552258	23.763737	4.200875
489	1	14.552258	25.744049	7.001458
490	1	15.764946	27.724360	7.701604
491	1	15.764946	25.744049	4.901021
492	1	15.764946	23.763737	6.301312
493	1	14.552258	33.665294	1.400292
494	1	14.552258	29.704671	0.000000
495	1	14.552258	31.684983	2.800583
496	1	15.764946	33.665294	3.500729
497	1	15.764946	31.684983	0.700146
498	1	15.764946	29.704671	2.100437
499	1	14.552258	33.665294	5.601167
500	1	14.552258	29.704671	4.200875
501	1	14.552258	31.684983	7.001458
502	1	15.764946	33.665294	7.701604
503	1	15.764946	31.684983	4.901021
504	1	15.764946	29.704671	6.301312
505	1	16.977634	3.960623	1.400292
506	1	16.977634	0.000000	0.000000
507	1	16.977634	1.980311	2.800583
508	1	18.190322	3.960623	3.500729
509	1	18.190322	1.980311	0.700146
510	1	18.190322	0.000000	2.100437
511	1	16.977634	3.960623	5.601167
512	1	16.977634	0.000000	4.200875
513	1	16.977634	1.980311	7.001458
514	1	18.190322	3.960623	7.701604
515	1	18.190322	1.980311	4.901021
516	1	18.190322	0.000000	6.301312
517	1	16.977634	9.901557	1.400292
518	1	16.977634	5.940934	0.000000
519	1	16.977634	7.921246	2.800583
520	1	18.190322	9.901557	3.500729
521	1	18.190322	7.921246	0.700146
522	1	18.190322	5.940934	2.100437
523	1	16.977634	9.901557	5.601167
524	1	16.977634	5.940934	4.200875
525	1	16.977634	7.921246	7.001458
526	1	18.190322	9.901557	7.701604
527	1	18.190322	7.921246	4.901021
528	1	18.190322	5.940934	6.301312
529	1	16.977634	15.842491	1.400292
530	1	16.977634	11.881869	0.000000
531	1	16.977634	13.862180	2.800583
532	1	18.190322	15.842491	3.500729
533	1	18.190322	13.862180	0.700146
534	1	18.190322	11.881869	2.100437
535	1	16.977634	15.842491	5.601167
536	1	16.977634	11.881869	4.200875
537	1	16.977634	13.862180	7.001458
538	1	18.190322	15.842491	7.701604
539	1	18.190322	13.862180	4.901021
540	1	18.190322	11.881869	6.301312
541	1	16.977634	21.783426	1.400292
542	1	16.977634	17.822803	0.000000
543	1	16.977634	19.803114	2.800583
544	1	18.190322	21.783426	3.500729
545	1	18.190322	19.803114	0.700146
546	1	18.190322	17.822803	2.100437
547	1	16.977634	21.783426	5.601167
548	1	16.977634	17.822803	4.200875
549	1	16.977634	19.803114	7.001458
550	1	18.190322	21.783426	7.701604
551	1	18.190322	19.803114	4.901021
552	1	18.190322	17.822803	6.301312
553	1	16.977634	27.724360	1.400292
554	1	16.977634	23.763737	0.000000
555	1	16.977634	25.744049	2.800583
556	1	18.190322	27.724360	3.500729
557	1	18.190322	25.744049	0.700146
558	1	18.190322	23.763737	2.100437
559	1	16.977634	27.724360	5.601167
560	1	16.977634	23.763737	4.200875
561	1	16.977634	25.744049	7.001458
562	1	18.190322	27.724360	7.701604
563	1	18.190322	25.744049	4.901021
564	1	18.190322	23.763737	6.301312
565	1	16.977634	33.665294	1.400292
566	1	16.977634	29.704671	0.000000
567	1	16.977634	31.684983	2.800583
568	1	18.190322	33.665294	3.500729
569	1	18.190322	31.684983	0.700146
570	1	18.190322	29.704671	2.100437
571	1	16.977634	33.665294	5.601167
572	1	16.977634	29.704671	4.200875
573	1	16.977634	31.684983	7.001458
574	1	18.190322	33.665294	7.701604
575	1	18.190322	31.684983	4.901021
576	1	18.190322	29.704671	6.301312
577	1	19.403010	3.960623	1.400292
578	1	19.403010	0.000000	0.000000
579	1	19.403010	1.980311	2.800583
580	1	20.615698	3.960623	3.500729
581	1	20.615698	1.980311	0.700146
582	1	20.615698	0.000000	2.100437
583	1	19.403010	3.960623	5.601167
584	1	19.403010	0.000000	4.200875
585	1	19.403010	1.980311	7.001458
586	1	20.615698	3.960623	7.701604
587	1	20.615698	1.980311	4.901021
588	1	20.615698	0.000000	6.301312
589	1	19.403010	9.901557	1.400292
590	1	19.403010	5.940934	0.000000
591	1	19.403010	7.921246	2.800583
592	1	20.615698	9.901557	3.500729
593	1	20.615698	7.921246	0.700146
594	1	20.615698	5.940934	2.100437
595	1	19.403010	9.901557	5.601167
596	1	19.403010	5.940934	4.200875
597	1	19.403010	7.921246	7.001458
598	1	20.615698	9.901557	7.701604
599	1	20.615698	7.921246	4.901021
600	1	20.615698	5.940934	6.301312
601	1	19.403010	15.842491	1.400292
602	1	19.403010	11.881869	0.000000
603	1	19.403010	13.862180	2.800583
604	1	20.615698	15.842491	3.500729
605	1	20.615698	13.862180	0.700146
606	1	20.615698	11.881869	2.100437
607	1	19.403010	15.842491	5.601167
608	1	19.403010	11.881869	4.200875
609	1	19.403010	13.862180	7.001458
610	1	20.615698	15.842491	7.701604
611	1	20.615698	13.862180	4.901021
612	1	20.615698	11.881869	6.301312
613	1	19.403010	21.783426	1.400292
614	1	19.403010	17.822803	0.000000
615	1	19.403010	19.803114	2.800583
616	1	20.615698	21.783426	3.500729
617	1	20.615698	19.803114	0.700146
618	1	20.615698	17.822803	2.100437
619	1	19.403010	21.783426	5.601167
620	1	19.403010	17.822803	4.200875
621	1	19.403010	19.803114	7.001458
622	1	20.615698	21.783426	7.701604
623	1	20.615698	19.803114	4.901021
624	1	20.615698	17.822803	6.301312
625	1	19.403010	27.724360	1.400292
626	1	19.403010	23.763737	0.000000
627	1	19.403010	25.744049	2.800583
628	1	20.615698	27.724360	3.500729
629	1	20.615698	25.744049	0.700146
630	1	20.615698	23.763737	2.100437
631	1	19.403010	27.724360	5.601167
632	1	19.403010	23.763737	4.200875
633	1	19.403010	25.744049	7.001458
634	1	20.615698	27.724360	7.701604
635	1	20.615698	25.744049	4.901021
636	1	20.615698	23.763737	6.301312
637	1	19.403010	33.665294	1.400292
638	1	19.403010	29.704671	0.000000
639	1	19.403010	31.684983	2.800583
640	1	20.615698	33.665294	3.500729
641	1	20.615698	31.684983	0.700146
642	1	20.615698	29.704671	2.100437
643	1	19.403010	33.665294	5.601167
644	1	19.403010	29.704671	4.200875
645	1	19.403010	31.684983	7.001458
646	1	20.615698	33.665294	7.701604
647	1	20.615698	31.684983	4.901021
648	1	20.615698	29.704671	6.301312
649	1	21.828386	3.960623	1.400292
650	1	21.828386	0.000000	0.000000
651	1	21.828386	1.980311	2.800583
652	1	23.041074	3.960623	3.500729
653	1	23.041074	1.980311	0.700146
654	1	23.041074	0.000000	2.100437
655	1	21.828386	3.960623	5.601167
656	1	21.828386	0.000000	4.200875
657	1	21.828386	1.980311	7.001458
658	1	23.041074	3.960623	7.701604
659	1	23.041074	1.980311	4.901021
660	1	23.041074	0.000000	6.301312
661	1	21.828386	9.901557	1.400292
662	1	21.828386	5.940934	0.000000
663	1	21.828386	7.921246	2.800583
664	1	23.041074	9.901557	3.500729
665	1	23.041074	7.921246	0.700146
666	1	23.041074	5.940934	2.100437
667	1	21.828386	9.901557	5.601167
668	1	21.828386	5.940934	4.200875
669	1	21.828386	7.921246	7.001458
670	1	23.041074	9.901557	7.701604
671	1	23.041074	7.921246	4.901021
672	1	23.041074	5.940934	6.301312
673	1	21.828386	15.842491	1.400292
674	1	21.828386	11.881869	0.000000
675	1	21.828386	13.862180	2.800583
676	1	23.041074	15.842491	3.500729
677	1	23.041074	13.862180	0.700146
678	1	23.041074	11.881869	2.100437
679	1	21.828386	15.842491	5.601167
680	1	21.828386	11.881869	4.200875
681	1	21.828386	13.862180	7.001458
682	1	23.041074	15.842491	7.701604
683	1	23.041074	13.862180	4.901021
684	1	23.041074	11.881869	6.301312
685	1	21.828386	21.783426	1.400292
686	1	21.828386	17.822803	0.000000
687	1	21.828386	19.803114	2.800583
688	1	23.041074	21.783426	3.500729
689	1	23.041074	19.803114	0.700146
690	1	23.041074	17.822803	2.100437
691	1	21.828386	21.783426	5.601167
692	1	21.828386	17.822803	4.200875
693	1	21.828386	19.803114	7.001458
694	1	23.041074	21.783426	7.701604
695	1	23.041074	19.803114	4.901021
696	1	23.041074	17.822803	6.301312
697	1	21.828386	27.724360	1.400292
698	1	21.828386	23.763737	0.000000
699	1	21.828386	25.744049	2.800583
700	1	23.041074	27.724360	3.500729
701	1	23.041074	25.744049	0.700146
702	1	23.041074	23.763737	2.100437
703	1	21.828386	27.724360	5.601167
704	1	21.828386	23.763737	4.200875
705	1	21.828386	25.744049	7.001458
706	1	23.041074	27.724360	7.701604
707	1	23.041074	25.744049	4.901021
708	1	23.041074	23.763737	6.301312
709	1	21.828386	33.665294	1.400292
710	1	21.828386	29.704671	0.000000
711	1	21.828386	31.684983	2.800583
712	1	23.041074	33.665294	3.500729
713	1	23.041074	31.684983	0.700146
714	1	23.041074	29.704671	2.100437
715	1	21.828386	33.665294	5.601167
716	1	21.828386	29.704671	4.200875
717	1	21.828386	31.684983	7.001458
718	1	23.041074	33.665294	7.701604
719	1	23.041074	31.684983	4.901021
720	1	23.041074	29.704671	6.301312
721	1	24.253763	3.960623	1.400292
722	1	24.253763	0.000000	0.000000
723	1	24.253763	1.980311	2.800583
724	1	25.466451	3.960623	3.500729
725	1	25.466451	1.980311	0.700146
726	1	25.466451	0.000000	2.100437
727	1	24.253763	3.960623	5.601167
728	1	24.253763	0.000000	4.200875
729	1	24.253763	1.980311	7.001458
730	1	25.466451	3.960623	7.701604
731	1	25.466451	1.980311	4.901021
732	1	25.466451	0.000000	6.301312
733	1	24.253763	9.901557	1.400292
734	1	24.253763	5.940934	0.000000
735	1	24.253763	7.921246	2.800583
736	1	25.466451	9.901557	3.500729
737	1	25.466451	7.921246	0.700146
738	1	25.466451	5.940934	2.100437
739	1	24.253763	9.901557	5.601167
740	1	24.253763	5.940934	4.200875
741	1	24.253763	7.921246	7.001458
742	1	25.466451	9.901557	7.701604
743	1	25.466451	7.921246	4.901021
744	1	25.466451	5.940934	6.301312
745	1	24.253763	15.842491	1.400292
746	1	24.253763	11.881869	0.000000
747	1	24.253763	13.862180	2.800583
748	1	25.466451	15.842491	3.500729
749	1	25.466451	13.862180	0.700146
750	1	25.466451	11.881869	2.100437
751	1	24.253763	15.842491	5.601167
752	1	24.253763	11.881869	4.200875
753	1	24.253763	13.862180	7.001458
754	1	25.466451	15.842491	7.701604
755	1	25.466451	13.862180	4.901021
756	1	25.466451	11.881869	6.301312
757	1	24.253763	21.783426	1.400292
758	1	24.253763	17.822803	0.000000
759	1	24.253763	19.803114	2.800583
760	1	25.466451	21.783426	3.500729
761	1	25.466451	19.803114	0.700146
762	1	25.466451	17.822803	2.100437
763	1	24.253763	21.783426	5.601167
764	1	24.253763	17.822803	4.200875
765	1	24.253763	19.803114	7.001458
766	1	25.466451	21.783426	7.701604
767	1	25.466451	19.803114	4.901021
768	1	25.466451	17.822803	6.301312
769	1	24.253763	27.724360	1.400292
770	1	24.253763	23.763737	0.000000
771	1	24.253763	25.744049	2.800583
772	1	25.466451	27.724360	3.500729
773	1	25.466451	25.744049	0.700146
774	1	25.466451	23.763737	2.100437
775	1	24.253763	27.724360	5.601167
776	1	24.253763	23.763737	4.200875
777	1	24.253763	25.744049	7.001458
778	1	25.466451	27.724360	7.701604
779	1	25.466451	25.744049	4.901021
780	1	25.466451	23.763737	6.301312
781	1	24.253763	33.665294	1.400292
782	1	24.253763	29.704671	0.000000
783	1	24.253763	31.684983	2.800583
784	1	25.466451	33.665294	3.500729
785	1	25.466451	31.684983	0.700146
786	1	25.466451	29.704671	2.100437
787	1	24.253763	33.665294	5.601167
788	1	24.253763	29.704671	4.200875
789	1	24.253763	31.684983	7.001458
790	1	25.466451	33.665294	7.701604
791	1	25.466451	31.684983	4.901021
792	1	25.466451	29.704671	6.301312
793	1	26.679139	3.960623	1.400292
794	1	26.679139	0.000000	0.000000
795	1	26.679139	1.980311	2.800583
796	1	27.891827	3.960623	3.500729
797	1	27.891827	1.980311	0.700146
798	1	27.891827	0.000000	2.100437
799	1	26.679139	3.960623	5.601167
800	1	26.679139	0.000000	4.200875
801	1	26.679139	1.980311	7.001458
802	1	27.891827	3.960623	7.701604
803	1	27.891827	1.980311	4.901021
804	1	27.891827	0.000000	6.301312
805	1	26.679139	9.901557	1.400292
806	1	26.679139	5.940934	0.000000
807	1	26.679139	7.921246	2.800583
808	1	27.891827	9.901557	3.500729
809	1	27.891827	7.921246	0.700146
810	1	27.891827	5.940934	2.100437
811	1	26.679139	9.901557	5.601167
812	1	26.679139	5.940934	4.200875
813	1	26.679139	7.921246	7.001458
814	1	27.891827	9.901557	7.701604
815	1	27.891827	7.921246	4.901021
816	1	27.891827	5.940934	6.301312
817	1	26.679139	15.842491	1.400292
818	1	26.679139	11.881869	0.000000
819	1	26.679139	13.862180	2.800583
820	1	27.891827	15.842491	3.500729
821	1	27.891827	13.862180	0.700146
822	1	27.891827	11.881869	2.100437
823	1	26.679139	15.842491	5.601167
824	1	26.679139	11.881869	4.200875
825	1	26.679139	13.862180	7.001458
826	1	27.891827	15.842491	7.701604
827	1	27.891827	13.862180	4.901021
828	1	27.891827	11.881869	6.301312
829	1	26.679139	21.783426	1.400292
830	1	26.679139	17.822803	0.000000
831	1	26.679139	19.803114	2.800583
832	1	27.891827	21.783426	3.500729
833	1	27.891827	19.803114	0.700146
834	1	27.891827	17.822803	2.100437
835	1	26.679139	21.783426	5.601167
836	1	26.679139	17.822803	4.200875
837	1	26.679139	19.803114	7.001458
838	1	27.891827	21.783426	7.701604
839	1	27.891827	19.803114	4.901021
840	1	27.891827	17.822803	6.301312
841	1	26.679139	27.724360	1.400292
842	1	26.679139	23.763737	0.000000
843	1	26.679139	25.744049	2.800583
844	1	27.891827	27.724360	3.500729
845	1	27.891827	25.744049	0.700146
846	1	27.891827	23.763737	2.100437
847	1	26.679139	27.724360	5.601167
848	1	26.679139	23.763737	4.200875
849	1	26.679139	25.744049	7.001458
850	1	27.891827	27.724360	7.701604
851	1	27.891827	25.744049	4.901021
852	1	27.891827	23.763737	6.301312
853	1	26.679139	33.665294	1.400292
854	1	26.679139	29.704671	0.000000
855	1	26.679139	31.684983	2.800583
856	1	27.891827	33.665294	3.500729
857	1	27.891827	31.684983	0.700146
858	1	27.891827	29.704671	2.100437
859	1	26.679139	33.665294	5.601167
860	1	26.679139	29.704671	4.200875
861	1	26.679139	31.684983	7.001458
862	1	27.891827	33.665294	7.701604
863	1	27.891827	31.684983	4.901021
864	1	27.891827	29.704671	6.301312
865	1	29.104515	3.960623	1.400292
866	1	29.104515	0.000000	0.000000
867	1	29.104515	1.980311	2.800583
868	1	30.317203	3.960623	3.500729
869	1	30.317203	1.980311	0.700146
870	1	30.317203	0.000000	2.100437
871	1	29.104515	3.960623	5.601167
872	1	29.104515	0.000000	4.200875