Position data Generated by SPaMD
484	atoms
1	atom types
0.000000		33.955268	xlo xhi
0.000000		35.645606	ylo yhi
0.000000		8.401750	zlo zhi
0.000000		0.000000	0.000000	xy xz yz

Atoms

1	1	31.424373	25.744049	7.001458
2	1	31.424373	23.763737	4.200875
3	1	31.424373	27.724360	5.601167
4	1	31.424373	25.744049	2.800583
5	1	31.424373	23.763737	0.000000
6	1	31.424373	27.724360	1.400292
7	1	31.424373	19.803114	7.001458
8	1	31.424373	17.822803	4.200875
9	1	31.424373	21.783426	5.601167
10	1	31.424373	19.803114	2.800583
11	1	31.424373	17.822803	0.000000
12	1	31.424373	21.783426	1.400292
13	1	31.424373	13.862180	7.001458
14	1	31.424373	11.881869	4.200875
15	1	31.424373	15.842491	5.601167
16	1	31.424373	13.862180	2.800583
17	1	31.424373	11.881869	0.000000
18	1	31.424373	15.842491	1.400292
19	1	31.424373	7.921246	7.001458
20	1	31.424373	9.901557	5.601167
21	1	31.424373	7.921246	2.800583
22	1	31.424373	9.901557	1.400292
23	1	30.106236	23.763737	6.301312
24	1	30.106236	25.744049	4.901021
25	1	30.106236	27.724360	7.701604
26	1	28.788099	25.744049	7.001458
27	1	28.788099	23.763737	4.200875
28	1	28.788099	27.724360	5.601167
29	1	30.106236	23.763737	2.100437
30	1	30.106236	25.744049	0.700146
31	1	30.106236	27.724360	3.500729
32	1	28.788099	25.744049	2.800583
33	1	28.788099	23.763737	0.000000
34	1	28.788099	27.724360	1.400292
35	1	30.106236	17.822803	6.301312
36	1	30.106236	19.803114	4.901021
37	1	30.106236	21.783426	7.701604
38	1	28.788099	19.803114	7.001458
39	1	28.788099	17.822803	4.200875
40	1	28.788099	21.783426	5.601167
41	1	30.106236	17.822803	2.100437
42	1	30.106236	19.803114	0.700146
43	1	30.106236	21.783426	3.500729
44	1	28.788099	19.803114	2.800583
45	1	28.788099	17.822803	0.000000
46	1	28.788099	21.783426	1.400292
47	1	30.106236	11.881869	6.301312
48	1	30.106236	13.862180	4.901021
49	1	30.106236	15.842491	7.701604
50	1	28.788099	13.862180	7.001458
51	1	28.788099	11.881869	4.200875
52	1	28.788099	15.842491	5.601167
53	1	30.106236	11.881869	2.100437
54	1	30.106236	13.862180	0.700146
55	1	30.106236	15.842491	3.500729
56	1	28.788099	13.862180	2.800583
57	1	28.788099	11.881869	0.000000
58	1	28.788099	15.842491	1.400292
59	1	30.106236	7.921246	4.901021
60	1	30.106236	9.901557	7.701604
61	1	28.788099	7.921246	7.001458
62	1	28.788099	9.901557	5.601167
63	1	30.106236	7.921246	0.700146
64	1	30.106236	9.901557	3.500729
65	1	28.788099	7.921246	2.800583
66	1	28.788099	9.901557	1.400292
67	1	27.469961	23.763737	6.301312
68	1	27.469961	25.744049	4.901021
69	1	27.469961	27.724360	7.701604
70	1	26.151824	25.744049	7.001458
71	1	26.151824	23.763737	4.200875
72	1	26.151824	27.724360	5.601167
73	1	27.469961	23.763737	2.100437
74	1	27.469961	25.744049	0.700146
75	1	27.469961	27.724360	3.500729
76	1	26.151824	25.744049	2.800583
77	1	26.151824	23.763737	0.000000
78	1	26.151824	27.724360	1.400292
79	1	27.469961	17.822803	6.301312
80	1	27.469961	19.803114	4.901021
81	1	27.469961	21.783426	7.701604
82	1	26.151824	19.803114	7.001458
83	1	26.151824	17.822803	4.200875
84	1	26.151824	21.783426	5.601167
85	1	27.469961	17.822803	2.100437
86	1	27.469961	19.803114	0.700146
87	1	27.469961	21.783426	3.500729
88	1	3.743487	9.901557	3.500729
89	1	3.743487	7.921246	0.700146
90	1	26.151824	19.803114	2.800583
91	1	26.151824	17.822803	0.000000
92	1	26.151824	21.783426	1.400292
93	1	27.469961	11.881869	6.301312
94	1	3.743487	9.901557	7.701604
95	1	3.743487	7.921246	4.901021
96	1	27.469961	13.862180	4.901021
97	1	27.469961	15.842491	7.701604
98	1	26.151824	13.862180	7.001458
99	1	26.151824	11.881869	4.200875
100	1	3.743487	15.842491	3.500729
101	1	3.743487	13.862180	0.700146
102	1	3.743487	11.881869	2.100437
103	1	26.151824	15.842491	5.601167
104	1	27.469961	11.881869	2.100437
105	1	27.469961	13.862180	0.700146
106	1	3.743487	15.842491	7.701604
107	1	3.743487	13.862180	4.901021
108	1	3.743487	11.881869	6.301312
109	1	27.469961	15.842491	3.500729
110	1	26.151824	13.862180	2.800583
111	1	26.151824	11.881869	0.000000
112	1	3.743487	21.783426	3.500729
113	1	3.743487	19.803114	0.700146
114	1	3.743487	17.822803	2.100437
115	1	26.151824	15.842491	1.400292
116	1	27.469961	7.921246	4.901021
117	1	27.469961	9.901557	7.701604
118	1	3.743487	21.783426	7.701604
119	1	3.743487	19.803114	4.901021
120	1	3.743487	17.822803	6.301312
121	1	26.151824	7.921246	7.001458
122	1	26.151824	9.901557	5.601167
123	1	27.469961	7.921246	0.700146
124	1	3.743487	27.724360	3.500729
125	1	3.743487	25.744049	0.700146
126	1	3.743487	23.763737	2.100437
127	1	27.469961	9.901557	3.500729
128	1	26.151824	7.921246	2.800583
129	1	26.151824	9.901557	1.400292
130	1	3.743487	27.724360	7.701604
131	1	3.743487	25.744049	4.901021
132	1	3.743487	23.763737	6.301312
133	1	24.833686	23.763737	6.301312
134	1	24.833686	25.744049	4.901021
135	1	24.833686	27.724360	7.701604
136	1	23.515548	25.744049	7.001458
137	1	23.515548	23.763737	4.200875
138	1	23.515548	27.724360	5.601167
139	1	24.833686	23.763737	2.100437
140	1	24.833686	25.744049	0.700146
141	1	24.833686	27.724360	3.500729
142	1	23.515548	25.744049	2.800583
143	1	23.515548	23.763737	0.000000
144	1	23.515548	27.724360	1.400292
145	1	24.833686	17.822803	6.301312
146	1	24.833686	19.803114	4.901021
147	1	24.833686	21.783426	7.701604
148	1	23.515548	19.803114	7.001458
149	1	23.515548	17.822803	4.200875
150	1	23.515548	21.783426	5.601167
151	1	24.833686	17.822803	2.100437
152	1	24.833686	19.803114	0.700146
153	1	24.833686	21.783426	3.500729
154	1	23.515548	19.803114	2.800583
155	1	23.515548	17.822803	0.000000
156	1	23.515548	21.783426	1.400292
157	1	5.061625	9.901557	1.400292
158	1	24.833686	11.881869	6.301312
159	1	5.061625	7.921246	2.800583
160	1	6.379763	9.901557	3.500729
161	1	6.379763	7.921246	0.700146
162	1	24.833686	13.862180	4.901021
163	1	5.061625	9.901557	5.601167
164	1	24.833686	15.842491	7.701604
165	1	5.061625	7.921246	7.001458
166	1	6.379763	9.901557	7.701604
167	1	6.379763	7.921246	4.901021
168	1	23.515548	13.862180	7.001458
169	1	5.061625	15.842491	1.400292
170	1	5.061625	11.881869	0.000000
171	1	5.061625	13.862180	2.800583
172	1	6.379763	15.842491	3.500729
173	1	6.379763	13.862180	0.700146
174	1	6.379763	11.881869	2.100437
175	1	5.061625	15.842491	5.601167
176	1	5.061625	11.881869	4.200875
177	1	5.061625	13.862180	7.001458
178	1	6.379763	15.842491	7.701604
179	1	6.379763	13.862180	4.901021
180	1	6.379763	11.881869	6.301312
181	1	5.061625	21.783426	1.400292
182	1	5.061625	17.822803	0.000000
183	1	5.061625	19.803114	2.800583
184	1	6.379763	21.783426	3.500729
185	1	6.379763	19.803114	0.700146
186	1	6.379763	17.822803	2.100437
187	1	5.061625	21.783426	5.601167
188	1	5.061625	17.822803	4.200875
189	1	5.061625	19.803114	7.001458
190	1	6.379763	21.783426	7.701604
191	1	6.379763	19.803114	4.901021
192	1	6.379763	17.822803	6.301312
193	1	5.061625	27.724360	1.400292
194	1	5.061625	23.763737	0.000000
195	1	5.061625	25.744049	2.800583
196	1	6.379763	27.724360	3.500729
197	1	6.379763	25.744049	0.700146
198	1	6.379763	23.763737	2.100437
199	1	5.061625	27.724360	5.601167
200	1	5.061625	23.763737	4.200875
201	1	5.061625	25.744049	7.001458
202	1	6.379763	27.724360	7.701604
203	1	6.379763	25.744049	4.901021
204	1	6.379763	23.763737	6.301312
205	1	23.515548	11.881869	4.200875
206	1	23.515548	15.842491	5.601167
207	1	24.833686	11.881869	2.100437
208	1	24.833686	13.862180	0.700146
209	1	24.833686	15.842491	3.500729
210	1	23.515548	13.862180	2.800583
211	1	23.515548	11.881869	0.000000
212	1	23.515548	15.842491	1.400292
213	1	24.833686	7.921246	4.901021
214	1	24.833686	9.901557	7.701604
215	1	23.515548	7.921246	7.001458
216	1	23.515548	9.901557	5.601167
217	1	24.833686	7.921246	0.700146
218	1	24.833686	9.901557	3.500729
219	1	23.515548	7.921246	2.800583
220	1	23.515548	9.901557	1.400292
221	1	22.197411	23.763737	6.301312
222	1	22.197411	25.744049	4.901021
223	1	22.197411	27.724360	7.701604
224	1	20.879274	25.744049	7.001458
225	1	20.879274	23.763737	4.200875
226	1	20.879274	27.724360	5.601167
227	1	22.197411	23.763737	2.100437
228	1	22.197411	25.744049	0.700146
229	1	7.697900	9.901557	1.400292
230	1	22.197411	27.724360	3.500729
231	1	7.697900	7.921246	2.800583
232	1	9.016037	9.901557	3.500729
233	1	9.016037	7.921246	0.700146
234	1	20.879274	25.744049	2.800583
235	1	7.697900	9.901557	5.601167
236	1	20.879274	23.763737	0.000000
237	1	7.697900	7.921246	7.001458
238	1	9.016037	9.901557	7.701604
239	1	9.016037	7.921246	4.901021
240	1	20.879274	27.724360	1.400292
241	1	7.697900	15.842491	1.400292
242	1	7.697900	11.881869	0.000000
243	1	7.697900	13.862180	2.800583
244	1	9.016037	15.842491	3.500729
245	1	9.016037	13.862180	0.700146
246	1	9.016037	11.881869	2.100437
247	1	7.697900	15.842491	5.601167
248	1	7.697900	11.881869	4.200875
249	1	7.697900	13.862180	7.001458
250	1	9.016037	15.842491	7.701604
251	1	9.016037	13.862180	4.901021
252	1	9.016037	11.881869	6.301312
253	1	7.697900	21.783426	1.400292
254	1	7.697900	17.822803	0.000000
255	1	7.697900	19.803114	2.800583
256	1	9.016037	21.783426	3.500729
257	1	9.016037	19.803114	0.700146
258	1	9.016037	17.822803	2.100437
259	1	7.697900	21.783426	5.601167
260	1	7.697900	17.822803	4.200875
261	1	7.697900	19.803114	7.001458
262	1	9.016037	21.783426	7.701604
263	1	9.016037	19.803114	4.901021
264	1	9.016037	17.822803	6.301312
265	1	7.697900	27.724360	1.400292
266	1	7.697900	23.763737	0.000000
267	1	7.697900	25.744049	2.800583
268	1	9.016037	27.724360	3.500729
269	1	9.016037	25.744049	0.700146
270	1	9.016037	23.763737	2.100437
271	1	7.697900	27.724360	5.601167
272	1	7.697900	23.763737	4.200875
273	1	7.697900	25.744049	7.001458
274	1	9.016037	27.724360	7.701604
275	1	9.016037	25.744049	4.901021
276	1	9.016037	23.763737	6.301312
277	1	22.197411	17.822803	6.301312
278	1	22.197411	19.803114	4.901021
279	1	22.197411	21.783426	7.701604
280	1	20.879274	19.803114	7.001458
281	1	20.879274	17.822803	4.200875
282	1	20.879274	21.783426	5.601167
283	1	22.197411	17.822803	2.100437
284	1	22.197411	19.803114	0.700146
285	1	22.197411	21.783426	3.500729
286	1	20.879274	19.803114	2.800583
287	1	20.879274	17.822803	0.000000
288	1	20.879274	21.783426	1.400292
289	1	22.197411	11.881869	6.301312
290	1	22.197411	13.862180	4.901021
291	1	22.197411	15.842491	7.701604
292	1	20.879274	13.862180	7.001458
293	1	20.879274	11.881869	4.200875
294	1	20.879274	15.842491	5.601167
295	1	22.197411	11.881869	2.100437
296	1	22.197411	13.862180	0.700146
297	1	22.197411	15.842491	3.500729
298	1	20.879274	13.862180	2.800583
299	1	20.879274	11.881869	0.000000
300	1	20.879274	15.842491	1.400292
301	1	10.334174	9.901557	1.400292
302	1	22.197411	7.921246	4.901021
303	1	10.334174	7.921246	2.800583
304	1	11.652312	9.901557	3.500729
305	1	11.652312	7.921246	0.700146
306	1	22.197411	9.901557	7.701604
307	1	10.334174	9.901557	5.601167
308	1	20.879274	7.921246	7.001458
309	1	10.334174	7.921246	7.001458
310	1	11.652312	9.901557	7.701604
311	1	11.652312	7.921246	4.901021
312	1	20.879274	9.901557	5.601167
313	1	10.334174	15.842491	1.400292
314	1	10.334174	11.881869	0.000000
315	1	10.334174	13.862180	2.800583
316	1	11.652312	15.842491	3.500729
317	1	11.652312	13.862180	0.700146
318	1	11.652312	11.881869	2.100437
319	1	10.334174	15.842491	5.601167
320	1	10.334174	11.881869	4.200875
321	1	10.334174	13.862180	7.001458
322	1	11.652312	15.842491	7.701604
323	1	11.652312	13.862180	4.901021
324	1	11.652312	11.881869	6.301312
325	1	10.334174	21.783426	1.400292
326	1	10.334174	17.822803	0.000000
327	1	10.334174	19.803114	2.800583
328	1	11.652312	21.783426	3.500729
329	1	11.652312	19.803114	0.700146
330	1	11.652312	17.822803	2.100437
331	1	10.334174	21.783426	5.601167
332	1	10.334174	17.822803	4.200875
333	1	10.334174	19.803114	7.001458
334	1	11.652312	21.783426	7.701604
335	1	11.652312	19.803114	4.901021
336	1	11.652312	17.822803	6.301312
337	1	10.334174	27.724360	1.400292
338	1	10.334174	23.763737	0.000000
339	1	10.334174	25.744049	2.800583
340	1	11.652312	27.724360	3.500729
341	1	11.652312	25.744049	0.700146
342	1	11.652312	23.763737	2.100437
343	1	10.334174	27.724360	5.601167
344	1	10.334174	23.763737	4.200875
345	1	10.334174	25.744049	7.001458
346	1	11.652312	27.724360	7.701604
347	1	11.652312	25.744049	4.901021
348	1	11.652312	23.763737	6.301312
349	1	22.197411	7.921246	0.700146
350	1	22.197411	9.901557	3.500729
351	1	20.879274	7.921246	2.800583
352	1	20.879274	9.901557	1.400292
353	1	19.561136	23.763737	6.301312
354	1	19.561136	25.744049	4.901021
355	1	19.561136	27.724360	7.701604
356	1	18.242999	25.744049	7.001458
357	1	18.242999	23.763737	4.200875
358	1	18.242999	27.724360	5.601167
359	1	19.561136	23.763737	2.100437
360	1	19.561136	25.744049	0.700146
361	1	19.561136	27.724360	3.500729
362	1	18.242999	25.744049	2.800583
363	1	18.242999	23.763737	0.000000
364	1	18.242999	27.724360	1.400292
365	1	19.561136	17.822803	6.301312
366	1	19.561136	19.803114	4.901021
367	1	19.561136	21.783426	7.701604
368	1	18.242999	19.803114	7.001458
369	1	18.242999	17.822803	4.200875
370	1	18.242999	21.783426	5.601167
371	1	19.561136	17.822803	2.100437
372	1	19.561136	19.803114	0.700146
373	1	12.970449	9.901557	1.400292
374	1	19.561136	21.783426	3.500729
375	1	12.970449	7.921246	2.800583
376	1	14.288586	9.901557	3.500729
377	1	14.288586	7.921246	0.700146
378	1	18.242999	19.803114	2.800583
379	1	12.970449	9.901557	5.601167
380	1	18.242999	17.822803	0.000000
381	1	12.970449	7.921246	7.001458
382	1	14.288586	9.901557	7.701604
383	1	14.288586	7.921246	4.901021
384	1	18.242999	21.783426	1.400292
385	1	12.970449	15.842491	1.400292
386	1	12.970449	11.881869	0.000000
387	1	12.970449	13.862180	2.800583
388	1	14.288586	15.842491	3.500729
389	1	14.288586	13.862180	0.700146
390	1	14.288586	11.881869	2.100437
391	1	12.970449	15.842491	5.601167
392	1	12.970449	11.881869	4.200875
393	1	12.970449	13.862180	7.001458
394	1	14.288586	15.842491	7.701604
395	1	14.288586	13.862180	4.901021
396	1	14.288586	11.881869	6.301312
397	1	12.970449	21.783426	1.400292
398	1	12.970449	17.822803	0.000000
399	1	12.970449	19.803114	2.800583
400	1	14.288586	21.783426	3.500729
401	1	14.288586	19.803114	0.700146
402	1	14.288586	17.822803	2.100437
403	1	12.970449	21.783426	5.601167
404	1	12.970449	17.822803	4.200875
405	1	12.970449	19.803114	7.001458
406	1	14.288586	21.783426	7.701604
407	1	14.288586	19.803114	4.901021
408	1	14.288586	17.822803	6.301312
409	1	12.970449	27.724360	1.400292
410	1	12.970449	23.763737	0.000000
411	1	12.970449	25.744049	2.800583
412	1	14.288586	27.724360	3.500729
413	1	14.288586	25.744049	0.700146
414	1	14.288586	23.763737	2.100437
415	1	12.970449	27.724360	5.601167
416	1	12.970449	23.763737	4.200875
417	1	12.970449	25.744049	7.001458
418	1	14.288586	27.724360	7.701604
419	1	14.288586	25.744049	4.901021
420	1	14.288586	23.763737	6.301312
421	1	19.561136	11.881869	6.301312
422	1	19.561136	13.862180	4.901021
423	1	19.561136	15.842491	7.701604
424	1	18.242999	13.862180	7.001458
425	1	18.242999	11.881869	4.200875
426	1	18.242999	15.842491	5.601167
427	1	19.561136	11.881869	2.100437
428	1	19.561136	13.862180	0.700146
429	1	19.561136	15.842491	3.500729
430	1	18.242999	13.862180	2.800583
431	1	18.242999	11.881869	0.000000
432	1	18.242999	15.842491	1.400292
433	1	19.561136	7.921246	4.901021
434	1	19.561136	9.901557	7.701604
435	1	18.242999	7.921246	7.001458
436	1	18.242999	9.901557	5.601167
437	1	19.561136	7.921246	0.700146
438	1	19.561136	9.901557	3.500729
439	1	18.242999	7.921246	2.800583
440	1	18.242999	9.901557	1.400292
441	1	16.924862	23.763737	6.301312
442	1	16.924862	25.744049	4.901021
443	1	16.924862	27.724360	7.701604
444	1	15.606725	25.744049	7.001458
445	1	15.606725	9.901557	1.400292
446	1	15.606725	23.763737	4.200875
447	1	15.606725	7.921246	2.800583
448	1	16.924862	9.901557	3.500729
449	1	16.924862	7.921246	0.700146
450	1	15.606725	27.724360	5.601167
451	1	15.606725	9.901557	5.601167
452	1	16.924862	23.763737	2.100437
453	1	15.606725	7.921246	7.001458
454	1	16.924862	9.901557	7.701604
455	1	16.924862	7.921246	4.901021
456	1	16.924862	25.744049	0.700146
457	1	15.606725	15.842491	1.400292
458	1	15.606725	11.881869	0.000000
459	1	15.606725	13.862180	2.800583
460	1	16.924862	15.842491	3.500729
461	1	16.924862	13.862180	0.700146
462	1	16.924862	11.881869	2.100437
463	1	15.606725	15.842491	5.601167
464	1	15.606725	11.881869	4.200875
465	1	15.606725	13.862180	7.001458
466	1	16.924862	15.842491	7.701604
467	1	16.924862	13.862180	4.901021
468	1	16.924862	11.881869	6.301312
469	1	15.606725	21.783426	1.400292
470	1	15.606725	17.822803	0.000000
471	1	15.606725	19.803114	2.800583
472	1	16.924862	21.783426	3.500729
473	1	16.924862	19.803114	0.700146
474	1	16.924862	17.822803	2.100437
475	1	15.606725	21.783426	5.601167
476	1	15.606725	17.822803	4.200875
477	1	15.606725	19.803114	7.001458
478	1	16.924862	21.783426	7.701604
479	1	16.924862	19.803114	4.901021
480	1	16.924862	17.822803	6.301312
481	1	15.606725	27.724360	1.400292
482	1	15.606725	23.763737	0.000000
483	1	15.606725	25.744049	2.800583
484	1	16.924862	27.724360	3.500729
