Kikuchi_sphere_radius
39.84063745
Kikuchi_line_intensity
67696
-1.67867914	-0.25248554	0.00000000	0.01018039
-1.67867914	-0.22443159	0.00000000	0.00123771
-1.67867914	-0.19637764	0.00000000	0.00686760
-1.67867914	-0.16832369	0.00000000	0.01039736
-1.67867914	-0.14026974	0.00000000	0.00053704
-1.67867914	-0.11221579	-0.23804565	0.00231751
-1.67867914	-0.11221579	0.00000000	0.02463702
-1.67867914	-0.08416185	-0.23804565	0.00065827
-1.67867914	-0.08416185	0.00000000	0.01053074
-1.67867914	-0.08416185	0.23804565	0.00065828
-1.67867914	-0.05610790	-0.23804565	0.00154878
-1.67867914	-0.05610790	0.00000000	0.03728370
-1.67867914	-0.02805395	0.00000000	0.30955395
-1.67867914	-0.02805395	0.23804565	0.00043910
-1.67867914	0.00000000	-0.23804565	0.00066105
-1.67867914	0.00000000	0.00000000	1.27962909
-1.67867914	0.00000000	0.23804565	0.00066104
-1.67867914	0.02805395	-0.23804565	0.00043910
-1.67867914	0.02805395	0.00000000	0.30955395
-1.67867914	0.05610790	0.00000000	0.03728370
-1.67867914	0.05610790	0.23804565	0.00154878
-1.67867914	0.08416185	-0.23804565	0.00065827
-1.67867914	0.08416185	0.00000000	0.01053074
-1.67867914	0.08416185	0.23804565	0.00065828
-1.67867914	0.11221579	0.00000000	0.02463702
-1.67867914	0.11221579	0.23804565	0.00231751
-1.67867914	0.14026974	0.00000000	0.00053704
-1.67867914	0.16832369	0.00000000	0.01039736
-1.67867914	0.19637764	0.00000000	0.00686760
-1.67867914	0.22443159	0.00000000	0.00123771
-1.67867914	0.25248554	0.00000000	0.01018039
-1.64922863	-0.39275528	0.00000000	2.37597713
-1.64922863	-0.36470133	0.00000000	0.05267508
-1.64922863	-0.33664738	-0.23804565	0.00059386
-1.64922863	-0.33664738	0.00000000	1.03725512
-1.64922863	-0.33664738	0.23804565	0.07184589
-1.64922863	-0.30859344	0.00000000	0.69687217
-1.64922863	-0.30859344	0.23804565	0.01757609
-1.64922863	-0.28053949	-0.23804565	0.00142278
-1.64922863	-0.28053949	0.00000000	0.12774862
-1.64922863	-0.28053949	0.23804565	0.00214093
-1.64922863	-0.25248554	-0.23804565	0.00061160
-1.64922863	-0.25248554	0.00000000	1.06880598
-1.64922863	-0.25248554	0.23804565	0.00061156
-1.64922863	-0.22443159	-0.23804565	0.00217757
-1.64922863	-0.22443159	0.00000000	0.12996937
-1.64922863	-0.22443159	0.23804565	0.00144714
-1.64922863	-0.19637764	-0.23804565	0.01818299
-1.64922863	-0.19637764	0.00000000	0.72129387
-1.64922863	-0.16832369	-0.23804565	0.07559096
-1.64922863	-0.16832369	0.00000000	1.09220007
-1.64922863	-0.16832369	0.23804565	0.00062469
-1.64922863	-0.14026974	-0.23804565	0.01839188
-1.64922863	-0.14026974	0.00000000	0.05642168
-1.64922863	-0.14026974	0.23804565	0.00041734
-1.64922863	-0.11221579	-0.23804565	0.00222786
-1.64922863	-0.11221579	0.00000000	2.58868284
-1.64922863	-0.08416185	-0.23804565	0.00063289
-1.64922863	-0.08416185	0.00000000	1.10659451
-1.64922863	-0.08416185	0.23804565	0.00063285
-1.64922863	-0.05610790	-0.23804565	0.00148909
-1.64922863	-0.05610790	0.00000000	3.91810965
-1.64922863	-0.02805395	0.00000000	32.53200221
-1.64922863	-0.02805395	0.23804565	0.00042216
-1.64922863	0.00000000	-0.23804565	0.00063568
-1.64922863	0.00000000	0.00000000	93.25126033
-1.64922863	0.00000000	0.23804565	0.00063553
-1.64922863	0.02805395	-0.23804565	0.00042223
-1.64922863	0.02805395	0.00000000	32.53200221
-1.64922863	0.05610790	0.00000000	3.91810965
-1.64922863	0.05610790	0.23804565	0.00148909
-1.64922863	0.08416185	-0.23804565	0.00063289
-1.64922863	0.08416185	0.00000000	1.10659451
-1.64922863	0.08416185	0.23804565	0.00063285
-1.64922863	0.11221579	0.00000000	2.58868284
-1.64922863	0.11221579	0.23804565	0.00222786
-1.64922863	0.14026974	-0.23804565	0.00041741
-1.64922863	0.14026974	0.00000000	0.05642168
-1.64922863	0.14026974	0.23804565	0.01839147
-1.64922863	0.16832369	-0.23804565	0.00062483
-1.64922863	0.16832369	0.00000000	1.09220007
-1.64922863	0.16832369	0.23804565	0.07559253
-1.64922863	0.19637764	0.00000000	0.72129387
-1.64922863	0.19637764	0.23804565	0.01818258
-1.64922863	0.22443159	-0.23804565	0.00144714
-1.64922863	0.22443159	0.00000000	0.12996937
-1.64922863	0.22443159	0.23804565	0.00217757
-1.64922863	0.25248554	-0.23804565	0.00061160
-1.64922863	0.25248554	0.00000000	1.06880598
-1.64922863	0.25248554	0.23804565	0.00061156
-1.64922863	0.28053949	-0.23804565	0.00214093
-1.64922863	0.28053949	0.00000000	0.12774862
-1.64922863	0.28053949	0.23804565	0.00142278
-1.64922863	0.30859344	-0.23804565	0.01757649
-1.64922863	0.30859344	0.00000000	0.69687217
-1.64922863	0.33664738	-0.23804565	0.07184439
-1.64922863	0.33664738	0.00000000	1.03725512
-1.64922863	0.33664738	0.23804565	0.00059373
-1.64922863	0.36470133	0.00000000	0.05267508
-1.64922863	0.39275528	0.00000000	2.37597713
-1.61977812	-0.50497108	0.00000000	2.62051046
-1.61977812	-0.47691713	0.00000000	0.64468030
-1.61977812	-0.44886318	0.00000000	0.07897820
-1.61977812	-0.44886318	0.23804565	0.00107546
-1.61977812	-0.42080923	-0.23804565	0.00046486
-1.61977812	-0.42080923	0.00000000	0.02269188
-1.61977812	-0.42080923	0.23804565	0.00046487
-1.61977812	-0.39275528	0.00000000	0.05400833
-1.61977812	-0.39275528	0.23804565	0.00166451
-1.61977812	-0.36470133	-0.23804565	0.00031721
-1.61977812	-0.36470133	0.00000000	0.00119773
-1.61977812	-0.36470133	0.23804565	0.01397788
-1.61977812	-0.33664738	-0.23804565	0.00048304
-1.61977812	-0.33664738	0.00000000	0.02359298
-1.61977812	-0.33664738	0.23804565	0.05844997
-1.61977812	-0.30859344	0.00000000	0.01585535
-1.61977812	-0.30859344	0.23804565	0.01430190
-1.61977812	-0.28053949	-0.23804565	0.00115802
-1.61977812	-0.28053949	0.00000000	0.00290730
-1.61977812	-0.28053949	0.23804565	0.00174253
-1.61977812	-0.25248554	-0.23804565	0.00049789
-1.61977812	-0.25248554	0.00000000	0.02433024
-1.61977812	-0.25248554	0.23804565	0.00049789
-1.61977812	-0.22443159	-0.23804565	0.00177315
-1.61977812	-0.22443159	0.00000000	0.00295931
-1.61977812	-0.22443159	0.23804565	0.00117837
-1.61977812	-0.19637764	-0.47609129	0.00110609
-1.61977812	-0.19637764	-0.23804565	0.01480865
-1.61977812	-0.19637764	0.00000000	0.01642641
-1.61977812	-0.19637764	0.47609129	0.63036447
-1.61977812	-0.16832369	-0.47609129	0.02165673
-1.61977812	-0.16832369	-0.23804565	0.06158063
-1.61977812	-0.16832369	0.00000000	0.02487750
-1.61977812	-0.16832369	0.23804565	0.00050890
-1.61977812	-0.16832369	0.47609129	2.62051031
-1.61977812	-0.14026974	-0.47609129	0.01446638
-1.61977812	-0.14026974	-0.23804565	0.01498338
-1.61977812	-0.14026974	0.00000000	0.00128534
-1.61977812	-0.14026974	0.23804565	0.00034003
-1.61977812	-0.14026974	0.47609129	0.63746422
-1.61977812	-0.11221579	-0.47609129	0.00263666
-1.61977812	-0.11221579	-0.23804565	0.00181522
-1.61977812	-0.11221579	0.00000000	0.05897915
-1.61977812	-0.11221579	0.47609129	0.07721233
-1.61977812	-0.08416185	-0.47609129	0.02193215
-1.61977812	-0.08416185	-0.23804565	0.00051569
-1.61977812	-0.08416185	0.00000000	0.02521442
-1.61977812	-0.08416185	0.23804565	0.00051569
-1.61977812	-0.08416185	0.47609129	0.02193213
-1.61977812	-0.05610790	-0.47609129	0.00265156
-1.61977812	-0.05610790	-0.23804565	0.00121346
-1.61977812	-0.05610790	0.00000000	0.08928253
-1.61977812	-0.05610790	0.47609129	0.05160227
-1.61977812	-0.02805395	-0.47609129	0.01463022
-1.61977812	-0.02805395	0.00000000	0.74134135
-1.61977812	-0.02805395	0.23804565	0.00034407
-1.61977812	-0.02805395	0.47609129	0.00113121
-1.61977812	0.00000000	-0.47609129	0.02202500
-1.61977812	0.00000000	-0.23804565	0.00051799
-1.61977812	0.00000000	0.00000000	3.06477178
-1.61977812	0.00000000	0.23804565	0.00051798
-1.61977812	0.00000000	0.47609129	0.02202503
-1.61977812	0.02805395	-0.47609129	0.00113121
-1.61977812	0.02805395	-0.23804565	0.00034406
-1.61977812	0.02805395	0.00000000	0.74134135
-1.61977812	0.02805395	0.47609129	0.01463021
-1.61977812	0.05610790	-0.47609129	0.05160227
-1.61977812	0.05610790	0.00000000	0.08928253
-1.61977812	0.05610790	0.23804565	0.00121346
-1.61977812	0.05610790	0.47609129	0.00265156
-1.61977812	0.08416185	-0.47609129	0.02193214
-1.61977812	0.08416185	-0.23804565	0.00051569
-1.61977812	0.08416185	0.00000000	0.02521442
-1.61977812	0.08416185	0.23804565	0.00051569
-1.61977812	0.08416185	0.47609129	0.02193214
-1.61977812	0.11221579	-0.47609129	0.07721233
-1.61977812	0.11221579	0.00000000	0.05897915
-1.61977812	0.11221579	0.23804565	0.00181522
-1.61977812	0.11221579	0.47609129	0.00263666
-1.61977812	0.14026974	-0.47609129	0.63746432
-1.61977812	0.14026974	-0.23804565	0.00034002
-1.61977812	0.14026974	0.00000000	0.00128534
-1.61977812	0.14026974	0.23804565	0.01498343
-1.61977812	0.14026974	0.47609129	0.01446636
-1.61977812	0.16832369	-0.47609129	2.62051062
-1.61977812	0.16832369	-0.23804565	0.00050892
-1.61977812	0.16832369	0.00000000	0.02487750
-1.61977812	0.16832369	0.23804565	0.06158080
-1.61977812	0.16832369	0.47609129	0.02165676
-1.61977812	0.19637764	-0.47609129	0.63036457
-1.61977812	0.19637764	0.00000000	0.01642641
-1.61977812	0.19637764	0.23804565	0.01480871
-1.61977812	0.19637764	0.47609129	0.00110610
-1.61977812	0.22443159	-0.23804565	0.00117837
-1.61977812	0.22443159	0.00000000	0.00295931
-1.61977812	0.22443159	0.23804565	0.00177315
-1.61977812	0.25248554	-0.23804565	0.00049789
-1.61977812	0.25248554	0.00000000	0.02433024
-1.61977812	0.25248554	0.23804565	0.00049789
-1.61977812	0.28053949	-0.23804565	0.00174253
-1.61977812	0.28053949	0.00000000	0.00290730
-1.61977812	0.28053949	0.23804565	0.00115802
-1.61977812	0.30859344	-0.23804565	0.01430184
-1.61977812	0.30859344	0.00000000	0.01585535
-1.61977812	0.33664738	-0.23804565	0.05844980
-1.61977812	0.33664738	0.00000000	0.02359298
-1.61977812	0.33664738	0.23804565	0.00048303
-1.61977812	0.36470133	-0.23804565	0.01397783
-1.61977812	0.36470133	0.00000000	0.00119773
-1.61977812	0.36470133	0.23804565	0.00031721
-1.61977812	0.39275528	-0.23804565	0.00166451
-1.61977812	0.39275528	0.00000000	0.05400833
-1.61977812	0.42080923	-0.23804565	0.00046486
-1.61977812	0.42080923	0.00000000	0.02269188
-1.61977812	0.42080923	0.23804565	0.00046487
-1.61977812	0.44886318	-0.23804565	0.00107546
-1.61977812	0.44886318	0.00000000	0.07897820
-1.61977812	0.47691713	0.00000000	0.64468030
-1.61977812	0.50497108	0.00000000	2.62051046
-1.59032760	-0.58913292	0.00000000	0.03617892
-1.59032760	-0.56107897	0.00000000	0.13026834
-1.59032760	-0.53302502	0.00000000	1.10014731
-1.59032760	-0.53302502	0.23804565	0.00019269
-1.59032760	-0.50497108	-0.23804565	0.00029504
-1.59032760	-0.50497108	0.00000000	4.62669362
-1.59032760	-0.50497108	0.23804565	0.00029502
-1.59032760	-0.47691713	-0.23804565	0.00019933
-1.59032760	-0.47691713	0.00000000	1.13872340
-1.59032760	-0.44886318	0.00000000	0.13955881
-1.59032760	-0.44886318	0.23804565	0.00071525
-1.59032760	-0.42080923	-0.23804565	0.00030928
-1.59032760	-0.42080923	0.00000000	0.04011332
-1.59032760	-0.42080923	0.23804565	0.00030928
-1.59032760	-0.39275528	0.00000000	0.09550772
-1.59032760	-0.39275528	0.23804565	0.00110781
-1.59032760	-0.36470133	-0.47609129	1.05158829
-1.59032760	-0.36470133	-0.23804565	0.00021119
-1.59032760	-0.36470133	0.00000000	0.00211879
-1.59032760	-0.36470133	0.23804565	0.00930609
-1.59032760	-0.36470133	0.47609129	0.02386445
-1.59032760	-0.33664738	-0.47609129	4.39612890
-1.59032760	-0.33664738	-0.23804565	0.00032170
-1.59032760	-0.33664738	0.00000000	0.04174966
-1.59032760	-0.33664738	0.23804565	0.03892621
-1.59032760	-0.33664738	0.47609129	0.03633163
-1.59032760	-0.30859344	-0.47609129	1.07547099
-1.59032760	-0.30859344	0.00000000	0.02806581
-1.59032760	-0.30859344	0.23804565	0.00952759
-1.59032760	-0.30859344	0.47609129	0.00188716
-1.59032760	-0.28053949	-0.47609129	0.13100782
-1.59032760	-0.28053949	-0.23804565	0.00077165
-1.59032760	-0.28053949	0.00000000	0.00514771
-1.59032760	-0.28053949	0.23804565	0.00116114
-1.59032760	-0.28053949	0.47609129	0.08706296
-1.59032760	-0.25248554	-0.47609129	0.03742572
-1.59032760	-0.25248554	-0.23804565	0.00033185
-1.59032760	-0.25248554	0.00000000	0.04309050
-1.59032760	-0.25248554	0.23804565	0.00033186
-1.59032760	-0.25248554	0.47609129	0.03742578
-1.59032760	-0.22443159	-0.47609129	0.08856173
-1.59032760	-0.22443159	-0.23804565	0.00118211
-1.59032760	-0.22443159	0.00000000	0.00524235
-1.59032760	-0.22443159	0.23804565	0.00078558
-1.59032760	-0.22443159	0.47609129	0.13326299
-1.59032760	-0.19637764	-0.47609129	0.00195261
-1.59032760	-0.19637764	-0.23804565	0.00987441
-1.59032760	-0.19637764	0.00000000	0.02910503
-1.59032760	-0.19637764	0.47609129	1.11279290
-1.59032760	-0.16832369	-0.47609129	0.03823694
-1.59032760	-0.16832369	-0.23804565	0.04106870
-1.59032760	-0.16832369	0.00000000	0.04408697
-1.59032760	-0.16832369	0.23804565	0.00033939
-1.59032760	-0.16832369	0.47609129	4.62669346
-1.59032760	-0.14026974	-0.47609129	0.02554507
-1.59032760	-0.14026974	-0.23804565	0.00999413
-1.59032760	-0.14026974	0.00000000	0.00227817
-1.59032760	-0.14026974	0.23804565	0.00022681
-1.59032760	-0.14026974	0.47609129	1.12564988
-1.59032760	-0.11221579	-0.47609129	0.00465638
-1.59032760	-0.11221579	-0.23804565	0.00121092
-1.59032760	-0.11221579	0.00000000	0.10454988
-1.59032760	-0.11221579	0.47609129	0.13635824
-1.59032760	-0.08416185	-0.47609129	0.03873582
-1.59032760	-0.08416185	-0.23804565	0.00034405
-1.59032760	-0.08416185	0.00000000	0.04470097
-1.59032760	-0.08416185	0.23804565	0.00034405
-1.59032760	-0.08416185	0.47609129	0.03873580
-1.59032760	-0.05610790	-0.47609129	0.00468338
-1.59032760	-0.05610790	-0.23804565	0.00080963
-1.59032760	-0.05610790	0.00000000	0.15829423
-1.59032760	-0.05610790	0.47609129	0.09114372
-1.59032760	-0.02805395	-0.47609129	0.02584192
-1.59032760	-0.02805395	0.00000000	1.31442335
-1.59032760	-0.02805395	0.23804565	0.00022957
-1.59032760	-0.02805395	0.47609129	0.00199810
-1.59032760	0.00000000	-0.47609129	0.03890408
-1.59032760	0.00000000	-0.23804565	0.00034563
-1.59032760	0.00000000	0.00000000	5.43395582
-1.59032760	0.00000000	0.23804565	0.00034561
-1.59032760	0.00000000	0.47609129	0.03890411
-1.59032760	0.02805395	-0.47609129	0.00199810
-1.59032760	0.02805395	-0.23804565	0.00022956
-1.59032760	0.02805395	0.00000000	1.31442335
-1.59032760	0.02805395	0.47609129	0.02584190
-1.59032760	0.05610790	-0.47609129	0.09114372
-1.59032760	0.05610790	0.00000000	0.15829423
-1.59032760	0.05610790	0.23804565	0.00080963
-1.59032760	0.05610790	0.47609129	0.00468338
-1.59032760	0.08416185	-0.47609129	0.03873581
-1.59032760	0.08416185	-0.23804565	0.00034405
-1.59032760	0.08416185	0.00000000	0.04470097
-1.59032760	0.08416185	0.23804565	0.00034405
-1.59032760	0.08416185	0.47609129	0.03873581
-1.59032760	0.11221579	-0.47609129	0.13635824
-1.59032760	0.11221579	0.00000000	0.10454988
-1.59032760	0.11221579	0.23804565	0.00121092
-1.59032760	0.11221579	0.47609129	0.00465638
-1.59032760	0.14026974	-0.47609129	1.12565000
-1.59032760	0.14026974	-0.23804565	0.00022680
-1.59032760	0.14026974	0.00000000	0.00227817
-1.59032760	0.14026974	0.23804565	0.00999419
-1.59032760	0.14026974	0.47609129	0.02554506
-1.59032760	0.16832369	-0.47609129	4.62669380
-1.59032760	0.16832369	-0.23804565	0.00033941
-1.59032760	0.16832369	0.00000000	0.04408697
-1.59032760	0.16832369	0.23804565	0.04106889
-1.59032760	0.16832369	0.47609129	0.03823697
-1.59032760	0.19637764	-0.47609129	1.11279301
-1.59032760	0.19637764	0.00000000	0.02910503
-1.59032760	0.19637764	0.23804565	0.00987448
-1.59032760	0.19637764	0.47609129	0.00195261
-1.59032760	0.22443159	-0.47609129	0.13326299
-1.59032760	0.22443159	-0.23804565	0.00078558
-1.59032760	0.22443159	0.00000000	0.00524235
-1.59032760	0.22443159	0.23804565	0.00118211
-1.59032760	0.22443159	0.47609129	0.08856173
-1.59032760	0.25248554	-0.47609129	0.03742579
-1.59032760	0.25248554	-0.23804565	0.00033185
-1.59032760	0.25248554	0.00000000	0.04309050
-1.59032760	0.25248554	0.23804565	0.00033186
-1.59032760	0.25248554	0.47609129	0.03742571
-1.59032760	0.28053949	-0.47609129	0.08706296
-1.59032760	0.28053949	-0.23804565	0.00116114
-1.59032760	0.28053949	0.00000000	0.00514771
-1.59032760	0.28053949	0.23804565	0.00077165
-1.59032760	0.28053949	0.47609129	0.13100782
-1.59032760	0.30859344	-0.47609129	0.00188715
-1.59032760	0.30859344	-0.23804565	0.00952753
-1.59032760	0.30859344	0.00000000	0.02806581
-1.59032760	0.30859344	0.47609129	1.07547088
-1.59032760	0.33664738	-0.47609129	0.03633161
-1.59032760	0.33664738	-0.23804565	0.03892603
-1.59032760	0.33664738	0.00000000	0.04174966
-1.59032760	0.33664738	0.23804565	0.00032169
-1.59032760	0.33664738	0.47609129	4.39612858
-1.59032760	0.36470133	-0.47609129	0.02386447
-1.59032760	0.36470133	-0.23804565	0.00930603
-1.59032760	0.36470133	0.00000000	0.00211879
-1.59032760	0.36470133	0.23804565	0.00021119
-1.59032760	0.36470133	0.47609129	1.05158818
-1.59032760	0.39275528	-0.23804565	0.00110781
-1.59032760	0.39275528	0.00000000	0.09550772
-1.59032760	0.42080923	-0.23804565	0.00030928
-1.59032760	0.42080923	0.00000000	0.04011332
-1.59032760	0.42080923	0.23804565	0.00030928
-1.59032760	0.44886318	-0.23804565	0.00071525
-1.59032760	0.44886318	0.00000000	0.13955881
-1.59032760	0.47691713	0.00000000	1.13872340
-1.59032760	0.47691713	0.23804565	0.00019934
-1.59032760	0.50497108	-0.23804565	0.00029504
-1.59032760	0.50497108	0.00000000	4.62669362
-1.59032760	0.50497108	0.23804565	0.00029502
-1.59032760	0.53302502	-0.23804565	0.00019268
-1.59032760	0.53302502	0.00000000	1.10014731
-1.59032760	0.56107897	0.00000000	0.13026834
-1.59032760	0.58913292	0.00000000	0.03617892
-1.56087709	-0.67329477	0.00000000	0.07997038
-1.56087709	-0.64524082	0.00000000	0.00420064
-1.56087709	-0.61718687	-0.23804565	0.00045952
-1.56087709	-0.61718687	0.00000000	0.19600635
-1.56087709	-0.58913292	-0.23804565	0.00013275
-1.56087709	-0.58913292	0.00000000	0.08523249
-1.56087709	-0.58913292	0.23804565	0.00013275
-1.56087709	-0.56107897	-0.23804565	0.00031771
-1.56087709	-0.56107897	0.00000000	0.30704378
-1.56087709	-0.53302502	0.00000000	2.59428523
-1.56087709	-0.50497108	-0.23804565	0.00014039
-1.56087709	-0.50497108	0.00000000	10.91532976
-1.56087709	-0.50497108	0.23804565	0.00014037
-1.56087709	-0.47691713	0.00000000	2.68766527
-1.56087709	-0.44886318	-0.47609129	0.19053901
-1.56087709	-0.44886318	0.00000000	0.32953220
-1.56087709	-0.44886318	0.23804565	0.00034061
-1.56087709	-0.44886318	0.47609129	0.00979050
-1.56087709	-0.42080923	-0.47609129	0.08236556
-1.56087709	-0.42080923	-0.23804565	0.00014734
-1.56087709	-0.42080923	0.00000000	0.09475556
-1.56087709	-0.42080923	0.23804565	0.00014734
-1.56087709	-0.42080923	0.47609129	0.08236542
-1.56087709	-0.39275528	-0.47609129	0.29494035
-1.56087709	-0.39275528	0.00000000	0.22569470
-1.56087709	-0.39275528	0.23804565	0.00052795
-1.56087709	-0.39275528	0.47609129	0.01007196
-1.56087709	-0.36470133	-0.47609129	2.47693020
-1.56087709	-0.36470133	-0.23804565	0.00010068
-1.56087709	-0.36470133	0.00000000	0.00500874
-1.56087709	-0.36470133	0.23804565	0.00443656
-1.56087709	-0.36470133	0.47609129	0.05621078
-1.56087709	-0.33664738	-0.47609129	10.35778070
-1.56087709	-0.33664738	-0.23804565	0.00015342
-1.56087709	-0.33664738	0.00000000	0.09872828
-1.56087709	-0.33664738	0.23804565	0.01856220
-1.56087709	-0.33664738	0.47609129	0.08560134
-1.56087709	-0.30859344	-0.47609129	2.53462224
-1.56087709	-0.30859344	0.00000000	0.06639026
-1.56087709	-0.30859344	0.23804565	0.00454503
-1.56087709	-0.30859344	0.47609129	0.00444756
-1.56087709	-0.28053949	-0.47609129	0.30883138
-1.56087709	-0.28053949	-0.23804565	0.00036821
-1.56087709	-0.28053949	0.00000000	0.01218060
-1.56087709	-0.28053949	0.23804565	0.00055407
-1.56087709	-0.28053949	0.47609129	0.20523794
-1.56087709	-0.25248554	-0.47609129	0.08824591
-1.56087709	-0.25248554	-0.23804565	0.00015839
-1.56087709	-0.25248554	0.00000000	0.10198887
-1.56087709	-0.25248554	0.23804565	0.00015840
-1.56087709	-0.25248554	0.47609129	0.08824606
-1.56087709	-0.22443159	-0.47609129	0.20886274
-1.56087709	-0.22443159	-0.23804565	0.00056435
-1.56087709	-0.22443159	0.00000000	0.01241088
-1.56087709	-0.22443159	0.23804565	0.00037504
-1.56087709	-0.22443159	0.47609129	0.31428556
-1.56087709	-0.19637764	-0.47609129	0.00460586
-1.56087709	-0.19637764	-0.23804565	0.00471507
-1.56087709	-0.19637764	0.00000000	0.06891900
-1.56087709	-0.19637764	0.47609129	2.62488135
-1.56087709	-0.16832369	-0.47609129	0.09020876
-1.56087709	-0.16832369	-0.23804565	0.01961254
-1.56087709	-0.16832369	0.00000000	0.10441510
-1.56087709	-0.16832369	0.23804565	0.00016209
-1.56087709	-0.16832369	0.47609129	10.91532962
-1.56087709	-0.14026974	-0.47609129	0.06027433
-1.56087709	-0.14026974	-0.23804565	0.00477384
-1.56087709	-0.14026974	0.00000000	0.00539647
-1.56087709	-0.14026974	0.23804565	0.00010834
-1.56087709	-0.14026974	0.47609129	2.65600365
-1.56087709	-0.11221579	-0.47609129	0.01098812
-1.56087709	-0.11221579	-0.23804565	0.00057849
-1.56087709	-0.11221579	0.00000000	0.24768762
-1.56087709	-0.11221579	0.47609129	0.32177765
-1.56087709	-0.08416185	-0.47609129	0.09141672
-1.56087709	-0.08416185	-0.23804565	0.00016437
-1.56087709	-0.08416185	0.00000000	0.10591140
-1.56087709	-0.08416185	0.23804565	0.00016438
-1.56087709	-0.08416185	0.47609129	0.09141668
-1.56087709	-0.05610790	-0.47609129	0.01105350
-1.56087709	-0.05610790	-0.23804565	0.00038685
-1.56087709	-0.05610790	0.00000000	0.37507935
-1.56087709	-0.05610790	0.47609129	0.21511324
-1.56087709	-0.02805395	-0.47609129	0.06099322
-1.56087709	-0.02805395	0.00000000	3.11467511
-1.56087709	-0.02805395	0.23804565	0.00010970
-1.56087709	-0.02805395	0.47609129	0.00471600
-1.56087709	0.00000000	-0.47609129	0.09182431
-1.56087709	0.00000000	-0.23804565	0.00016516
-1.56087709	0.00000000	0.00000000	12.87658349
-1.56087709	0.00000000	0.23804565	0.00016514
-1.56087709	0.00000000	0.47609129	0.09182434
-1.56087709	0.02805395	-0.47609129	0.00471600
-1.56087709	0.02805395	-0.23804565	0.00010969
-1.56087709	0.02805395	0.00000000	3.11467511
-1.56087709	0.02805395	0.47609129	0.06099320
-1.56087709	0.05610790	-0.47609129	0.21511324
-1.56087709	0.05610790	0.00000000	0.37507935
-1.56087709	0.05610790	0.23804565	0.00038685
-1.56087709	0.05610790	0.47609129	0.01105350
-1.56087709	0.08416185	-0.47609129	0.09141669
-1.56087709	0.08416185	-0.23804565	0.00016437
-1.56087709	0.08416185	0.00000000	0.10591140
-1.56087709	0.08416185	0.23804565	0.00016438
-1.56087709	0.08416185	0.47609129	0.09141671
-1.56087709	0.11221579	-0.47609129	0.32177765
-1.56087709	0.11221579	0.00000000	0.24768762
-1.56087709	0.11221579	0.23804565	0.00057849
-1.56087709	0.11221579	0.47609129	0.01098812
-1.56087709	0.14026974	-0.47609129	2.65600377
-1.56087709	0.14026974	-0.23804565	0.00010833
-1.56087709	0.14026974	0.00000000	0.00539647
-1.56087709	0.14026974	0.23804565	0.00477391
-1.56087709	0.14026974	0.47609129	0.06027431
-1.56087709	0.16832369	-0.47609129	10.91532998
-1.56087709	0.16832369	-0.23804565	0.00016210
-1.56087709	0.16832369	0.00000000	0.10441510
-1.56087709	0.16832369	0.23804565	0.01961274
-1.56087709	0.16832369	0.47609129	0.09020879
-1.56087709	0.19637764	-0.47609129	2.62488147
-1.56087709	0.19637764	0.00000000	0.06891900
-1.56087709	0.19637764	0.23804565	0.00471514
-1.56087709	0.19637764	0.47609129	0.00460586
-1.56087709	0.22443159	-0.47609129	0.31428556
-1.56087709	0.22443159	-0.23804565	0.00037504
-1.56087709	0.22443159	0.00000000	0.01241088
-1.56087709	0.22443159	0.23804565	0.00056435
-1.56087709	0.22443159	0.47609129	0.20886274
-1.56087709	0.25248554	-0.47609129	0.08824607
-1.56087709	0.25248554	-0.23804565	0.00015839
-1.56087709	0.25248554	0.00000000	0.10198887
-1.56087709	0.25248554	0.23804565	0.00015840
-1.56087709	0.25248554	0.47609129	0.08824590
-1.56087709	0.28053949	-0.47609129	0.20523794
-1.56087709	0.28053949	-0.23804565	0.00055407
-1.56087709	0.28053949	0.00000000	0.01218060
-1.56087709	0.28053949	0.23804565	0.00036821
-1.56087709	0.28053949	0.47609129	0.30883138
-1.56087709	0.30859344	-0.47609129	0.00444756
-1.56087709	0.30859344	-0.23804565	0.00454497
-1.56087709	0.30859344	0.00000000	0.06639026
-1.56087709	0.30859344	0.47609129	2.53462213
-1.56087709	0.33664738	-0.47609129	0.08560131
-1.56087709	0.33664738	-0.23804565	0.01856201
-1.56087709	0.33664738	0.00000000	0.09872828
-1.56087709	0.33664738	0.23804565	0.00015340
-1.56087709	0.33664738	0.47609129	10.35778037
-1.56087709	0.36470133	-0.47609129	0.05621080
-1.56087709	0.36470133	-0.23804565	0.00443650
-1.56087709	0.36470133	0.00000000	0.00500874
-1.56087709	0.36470133	0.23804565	0.00010069
-1.56087709	0.36470133	0.47609129	2.47693009
-1.56087709	0.39275528	-0.47609129	0.01007196
-1.56087709	0.39275528	-0.23804565	0.00052795
-1.56087709	0.39275528	0.00000000	0.22569470
-1.56087709	0.39275528	0.47609129	0.29494035
-1.56087709	0.42080923	-0.47609129	0.08236543
-1.56087709	0.42080923	-0.23804565	0.00014734
-1.56087709	0.42080923	0.00000000	0.09475556
-1.56087709	0.42080923	0.23804565	0.00014734
-1.56087709	0.42080923	0.47609129	0.08236555
-1.56087709	0.44886318	-0.47609129	0.00979050
-1.56087709	0.44886318	-0.23804565	0.00034061
-1.56087709	0.44886318	0.00000000	0.32953220
-1.56087709	0.44886318	0.47609129	0.19053901
-1.56087709	0.47691713	0.00000000	2.68766527
-1.56087709	0.50497108	-0.23804565	0.00014039
-1.56087709	0.50497108	0.00000000	10.91532976
-1.56087709	0.50497108	0.23804565	0.00014037
-1.56087709	0.53302502	0.00000000	2.59428523
-1.56087709	0.56107897	0.00000000	0.30704378
-1.56087709	0.56107897	0.23804565	0.00031771
-1.56087709	0.58913292	-0.23804565	0.00013275
-1.56087709	0.58913292	0.00000000	0.08523249
-1.56087709	0.58913292	0.23804565	0.00013275
-1.56087709	0.61718687	0.00000000	0.19600635
-1.56087709	0.61718687	0.23804565	0.00045952
-1.56087709	0.64524082	0.00000000	0.00420064
-1.56087709	0.67329477	0.00000000	0.07997038
-1.53142658	-0.72940266	0.00000000	0.06790338
-1.53142658	-0.70134872	0.00000000	0.38318678
-1.53142658	-0.67329477	-0.23804565	0.00286576
-1.53142658	-0.67329477	0.00000000	0.59015902
-1.53142658	-0.64524082	-0.23804565	0.00070893
-1.53142658	-0.64524082	0.00000000	0.03101644
-1.53142658	-0.61718687	0.00000000	1.44803212
-1.53142658	-0.58913292	0.00000000	0.62999837
-1.53142658	-0.56107897	-0.47609129	0.06752359
-1.53142658	-0.56107897	0.00000000	2.27067459
-1.53142658	-0.56107897	0.47609129	1.31404644
-1.53142658	-0.53302502	-0.47609129	0.37888176
-1.53142658	-0.53302502	0.00000000	19.19491967
-1.53142658	-0.53302502	0.47609129	0.02929450
-1.53142658	-0.50497108	-0.47609129	0.58014883
-1.53142658	-0.50497108	0.00000000	80.79920740
-1.53142658	-0.50497108	0.47609129	0.58014391
-1.53142658	-0.47691713	-0.47609129	0.03031073
-1.53142658	-0.47691713	0.00000000	19.90447344
-1.53142658	-0.47691713	0.47609129	0.39200745
-1.53142658	-0.44886318	-0.47609129	1.40664432
-1.53142658	-0.44886318	0.00000000	2.44154817
-1.53142658	-0.44886318	0.47609129	0.07227783
-1.53142658	-0.42080923	-0.47609129	0.60828043
-1.53142658	-0.42080923	0.00000000	0.70235343
-1.53142658	-0.42080923	0.47609129	0.60827949
-1.53142658	-0.39275528	-0.47609129	2.17892488
-1.53142658	-0.39275528	0.00000000	1.67358205
-1.53142658	-0.39275528	0.23804565	0.00010074
-1.53142658	-0.39275528	0.47609129	0.07440840
-1.53142658	-0.36470133	-0.47609129	18.30472817
-1.53142658	-0.36470133	0.00000000	0.03715520
-1.53142658	-0.36470133	0.23804565	0.00084686
-1.53142658	-0.36470133	0.47609129	0.41540257
-1.53142658	-0.33664738	-0.47609129	76.56732195
-1.53142658	-0.33664738	0.00000000	0.73263524
-1.53142658	-0.33664738	0.23804565	0.00354548
-1.53142658	-0.33664738	0.47609129	0.63279456
-1.53142658	-0.30859344	-0.47609129	18.74213493
-1.53142658	-0.30859344	0.00000000	0.49282826
-1.53142658	-0.30859344	0.23804565	0.00086815
-1.53142658	-0.30859344	0.47609129	0.03288725
-1.53142658	-0.28053949	-0.47609129	2.28423819
-1.53142658	-0.28053949	0.00000000	0.09044695
-1.53142658	-0.28053949	0.23804565	0.00010586
-1.53142658	-0.28053949	0.47609129	1.51802042
-1.53142658	-0.25248554	-0.47609129	0.65285822
-1.53142658	-0.25248554	0.00000000	0.75753176
-1.53142658	-0.25248554	0.47609129	0.65285940
-1.53142658	-0.22443159	-0.47609129	1.54553753
-1.53142658	-0.22443159	-0.23804565	0.00010788
-1.53142658	-0.22443159	0.00000000	0.09220657
-1.53142658	-0.22443159	0.47609129	2.32564280
-1.53142658	-0.19637764	-0.47609129	0.03408890
-1.53142658	-0.19637764	-0.23804565	0.00090149
-1.53142658	-0.19637764	0.00000000	0.51214984
-1.53142658	-0.19637764	0.47609129	19.42728699
-1.53142658	-0.16832369	-0.47609129	0.66776630
-1.53142658	-0.16832369	-0.23804565	0.00375168
-1.53142658	-0.16832369	0.00000000	0.77608251
-1.53142658	-0.16832369	0.47609129	80.79920745
-1.53142658	-0.14026974	-0.47609129	0.44624201
-1.53142658	-0.14026974	-0.23804565	0.00091305
-1.53142658	-0.14026974	0.00000000	0.04011700
-1.53142658	-0.14026974	0.47609129	19.66376959
-1.53142658	-0.11221579	-0.47609129	0.08136033
-1.53142658	-0.11221579	-0.23804565	0.00011066
-1.53142658	-0.11221579	0.00000000	1.84154928
-1.53142658	-0.11221579	0.47609129	2.38256792
-1.53142658	-0.08416185	-0.47609129	0.67694768
-1.53142658	-0.08416185	0.00000000	0.78753383
-1.53142658	-0.08416185	0.47609129	0.67694746
-1.53142658	-0.05610790	-0.47609129	0.08185745
-1.53142658	-0.05610790	0.00000000	2.78922579
-1.53142658	-0.05610790	0.47609129	1.59303522
-1.53142658	-0.02805395	-0.71413694	0.00069299
-1.53142658	-0.02805395	-0.47609129	0.45170721
-1.53142658	-0.02805395	0.00000000	23.16294297
-1.53142658	-0.02805395	0.47609129	0.03492604
-1.53142658	-0.02805395	0.71413694	0.00069317
-1.53142658	0.00000000	-0.71413694	0.00286558
-1.53142658	0.00000000	-0.47609129	0.68004712
-1.53142658	0.00000000	0.00000000	95.75974572
-1.53142658	0.00000000	0.47609129	0.68004716
-1.53142658	0.00000000	0.71413694	0.00286612
-1.53142658	0.02805395	-0.71413694	0.00069299
-1.53142658	0.02805395	-0.47609129	0.03492603
-1.53142658	0.02805395	0.00000000	23.16294297
-1.53142658	0.02805395	0.47609129	0.45170719
-1.53142658	0.02805395	0.71413694	0.00069317
-1.53142658	0.05610790	-0.47609129	1.59303522
-1.53142658	0.05610790	0.00000000	2.78922579
-1.53142658	0.05610790	0.47609129	0.08185745
-1.53142658	0.08416185	-0.47609129	0.67694747
-1.53142658	0.08416185	0.00000000	0.78753383
-1.53142658	0.08416185	0.47609129	0.67694766
-1.53142658	0.11221579	-0.47609129	2.38256792