Kikuchi_sphere_radius
39.84063745
Kikuchi_line_intensity
180
-1.64922863	0.00000000	0.00000000	431.99261191
-1.23692147	-0.84161846	0.23804565	571.82812306
-1.23692147	-0.67329477	-0.23804565	690.16277613
-1.23692147	-0.50497108	-0.71413694	571.82812709
-1.23692147	-0.50497108	0.71413694	571.82812709
-1.23692147	-0.33664738	0.23804565	914.85475247
-1.23692147	-0.16832369	-0.23804565	988.38520776
-1.23692147	0.00000000	-0.71413694	690.16278146
-1.23692147	0.00000000	0.71413694	690.16278146
-1.23692147	0.16832369	0.23804565	988.38520776
-1.23692147	0.33664738	-0.23804565	914.85475247
-1.23692147	0.50497108	-0.71413694	571.82812709
-1.23692147	0.50497108	0.71413694	571.82812709
-1.23692147	0.67329477	0.23804565	690.16277613
-1.23692147	0.84161846	-0.23804565	571.82812306
-0.82461431	-1.34658953	-0.47609129	431.99261308
-0.82461431	-1.17826584	0.47609129	571.82812447
-0.82461431	-1.00994215	0.00000000	914.85475124
-0.82461431	-0.84161846	-0.47609129	988.38521096
-0.82461431	-0.84161846	0.95218258	571.82813051
-0.82461431	-0.67329477	-0.95218258	690.16278599
-0.82461431	-0.67329477	0.47609129	1272.16607734
-0.82461431	-0.50497108	0.00000000	2118.41809046
-0.82461431	-0.33664738	-0.47609129	1892.04352806
-0.82461431	-0.33664738	0.95218258	914.85476755
-0.82461431	-0.16832369	-0.95218258	988.38522471
-0.82461431	-0.16832369	0.47609129	2118.41810495
-0.82461431	0.00000000	-1.42827387	431.99262377
-0.82461431	0.00000000	0.00000000	3114.35244539
-0.82461431	0.00000000	1.42827387	431.99262377
-0.82461431	0.16832369	-0.47609129	2118.41810494
-0.82461431	0.16832369	0.95218258	988.38522472
-0.82461431	0.33664738	-0.95218258	914.85476755
-0.82461431	0.33664738	0.47609129	1892.04352806
-0.82461431	0.50497108	0.00000000	2118.41809046
-0.82461431	0.67329477	-0.47609129	1272.16607734
-0.82461431	0.67329477	0.95218258	690.16278599
-0.82461431	0.84161846	-0.95218258	571.82813051
-0.82461431	0.84161846	0.47609129	988.38521096
-0.82461431	1.00994215	0.00000000	914.85475124
-0.82461431	1.17826584	-0.47609129	571.82812447
-0.82461431	1.34658953	0.47609129	431.99261308
-0.41230716	-1.34658953	0.23804565	690.16277591
-0.41230716	-1.17826584	-0.23804565	988.38520738
-0.41230716	-1.00994215	-0.71413694	914.85476029
-0.41230716	-1.00994215	0.71413694	914.85476029
-0.41230716	-0.84161846	-1.19022823	571.82813498
-0.41230716	-0.84161846	0.23804565	2118.41809363
-0.41230716	-0.67329477	-0.23804565	3114.35245113
-0.41230716	-0.67329477	1.19022823	690.16279190
-0.41230716	-0.50497108	-0.71413694	2118.41812260
-0.41230716	-0.50497108	0.71413694	2118.41812260
-0.41230716	-0.33664738	-1.19022823	914.85477659
-0.41230716	-0.33664738	0.23804565	6451.28274753
-0.41230716	-0.16832369	-0.23804565	8491.45326964
-0.41230716	-0.16832369	1.19022823	988.38523489
-0.41230716	0.00000000	-0.71413694	3114.35250356
-0.41230716	0.00000000	0.71413694	3114.35250356
-0.41230716	0.16832369	-1.19022823	988.38523489
-0.41230716	0.16832369	0.23804565	8491.45326964
-0.41230716	0.33664738	-0.23804565	6451.28274753
-0.41230716	0.33664738	1.19022823	914.85477659
-0.41230716	0.50497108	-0.71413694	2118.41812260
-0.41230716	0.50497108	0.71413694	2118.41812260
-0.41230716	0.67329477	-1.19022823	690.16279190
-0.41230716	0.67329477	0.23804565	3114.35245113
-0.41230716	0.84161846	-0.23804565	2118.41809363
-0.41230716	0.84161846	1.19022823	571.82813499
-0.41230716	1.00994215	-0.71413694	914.85476029
-0.41230716	1.00994215	0.71413694	914.85476029
-0.41230716	1.17826584	0.23804565	988.38520738
-0.41230716	1.34658953	-0.23804565	690.16277591
0.00000000	-1.51491323	0.00000000	571.82812237
0.00000000	-1.34658953	-0.47609129	690.16277788
0.00000000	-1.34658953	0.95218258	431.99261703
0.00000000	-1.17826584	-0.95218258	571.82813043
0.00000000	-1.17826584	0.47609129	988.38521077
0.00000000	-1.00994215	0.00000000	1892.04351533
0.00000000	-0.84161846	-0.47609129	2118.41810434
0.00000000	-0.84161846	0.95218258	988.38522452
0.00000000	-0.67329477	-0.95218258	1272.16609723
0.00000000	-0.67329477	0.47609129	3114.35247051
0.00000000	-0.50497108	-1.42827387	571.82814051
0.00000000	-0.50497108	0.00000000	8491.45322937
0.00000000	-0.50497108	1.42827387	571.82814051
0.00000000	-0.33664738	-0.47609129	6451.28281629
0.00000000	-0.33664738	0.95218258	1892.04356422
0.00000000	-0.16832369	-0.95218258	2118.41814780
0.00000000	-0.16832369	0.47609129	8491.45338399
0.00000000	0.00000000	-1.42827387	690.16279921
0.00000000	0.00000000	1.42827387	690.16279921
0.00000000	0.16832369	-0.47609129	8491.45338399
0.00000000	0.16832369	0.95218258	2118.41814780
0.00000000	0.33664738	-0.95218258	1892.04356422
0.00000000	0.33664738	0.47609129	6451.28281629
0.00000000	0.50497108	-1.42827387	571.82814051
0.00000000	0.50497108	0.00000000	8491.45322937
0.00000000	0.50497108	1.42827387	571.82814051
0.00000000	0.67329477	-0.47609129	3114.35247051
0.00000000	0.67329477	0.95218258	1272.16609723
0.00000000	0.84161846	-0.95218258	988.38522452
0.00000000	0.84161846	0.47609129	2118.41810434
0.00000000	1.00994215	0.00000000	1892.04351533
0.00000000	1.17826584	-0.47609129	988.38521077
0.00000000	1.17826584	0.95218258	571.82813043
0.00000000	1.34658953	-0.95218258	431.99261703
0.00000000	1.34658953	0.47609129	690.16277788
0.00000000	1.51491323	0.00000000	571.82812237
0.41230716	-1.34658953	0.23804565	690.16277591
0.41230716	-1.17826584	-0.23804565	988.38520738
0.41230716	-1.00994215	-0.71413694	914.85476029
0.41230716	-1.00994215	0.71413694	914.85476029
0.41230716	-0.84161846	-1.19022823	571.82813499
0.41230716	-0.84161846	0.23804565	2118.41809363
0.41230716	-0.67329477	-0.23804565	3114.35245113
0.41230716	-0.67329477	1.19022823	690.16279190
0.41230716	-0.50497108	-0.71413694	2118.41812260
0.41230716	-0.50497108	0.71413694	2118.41812260
0.41230716	-0.33664738	-1.19022823	914.85477659
0.41230716	-0.33664738	0.23804565	6451.28274753
0.41230716	-0.16832369	-0.23804565	8491.45326964
0.41230716	-0.16832369	1.19022823	988.38523489
0.41230716	0.00000000	-0.71413694	3114.35250356
0.41230716	0.00000000	0.71413694	3114.35250356
0.41230716	0.16832369	-1.19022823	988.38523489
0.41230716	0.16832369	0.23804565	8491.45326964
0.41230716	0.33664738	-0.23804565	6451.28274753
0.41230716	0.33664738	1.19022823	914.85477659
0.41230716	0.50497108	-0.71413694	2118.41812260
0.41230716	0.50497108	0.71413694	2118.41812260
0.41230716	0.67329477	-1.19022823	690.16279190
0.41230716	0.67329477	0.23804565	3114.35245113
0.41230716	0.84161846	-0.23804565	2118.41809363
0.41230716	0.84161846	1.19022823	571.82813498
0.41230716	1.00994215	-0.71413694	914.85476029
0.41230716	1.00994215	0.71413694	914.85476029
0.41230716	1.17826584	0.23804565	988.38520738
0.41230716	1.34658953	-0.23804565	690.16277591
0.82461431	-1.34658953	-0.47609129	431.99261308
0.82461431	-1.17826584	0.47609129	571.82812447
0.82461431	-1.00994215	0.00000000	914.85475124
0.82461431	-0.84161846	-0.47609129	988.38521096
0.82461431	-0.84161846	0.95218258	571.82813051
0.82461431	-0.67329477	-0.95218258	690.16278599
0.82461431	-0.67329477	0.47609129	1272.16607734
0.82461431	-0.50497108	0.00000000	2118.41809046
0.82461431	-0.33664738	-0.47609129	1892.04352806
0.82461431	-0.33664738	0.95218258	914.85476755
0.82461431	-0.16832369	-0.95218258	988.38522472
0.82461431	-0.16832369	0.47609129	2118.41810494
0.82461431	0.00000000	-1.42827387	431.99262377
0.82461431	0.00000000	0.00000000	3114.35244539
0.82461431	0.00000000	1.42827387	431.99262377
0.82461431	0.16832369	-0.47609129	2118.41810495
0.82461431	0.16832369	0.95218258	988.38522471
0.82461431	0.33664738	-0.95218258	914.85476755
0.82461431	0.33664738	0.47609129	1892.04352806
0.82461431	0.50497108	0.00000000	2118.41809046
0.82461431	0.67329477	-0.47609129	1272.16607734
0.82461431	0.67329477	0.95218258	690.16278599
0.82461431	0.84161846	-0.95218258	571.82813051
0.82461431	0.84161846	0.47609129	988.38521096
0.82461431	1.00994215	0.00000000	914.85475124
0.82461431	1.17826584	-0.47609129	571.82812447
0.82461431	1.34658953	0.47609129	431.99261308
1.23692147	-0.84161846	0.23804565	571.82812306
1.23692147	-0.67329477	-0.23804565	690.16277613
1.23692147	-0.50497108	-0.71413694	571.82812709
1.23692147	-0.50497108	0.71413694	571.82812709
1.23692147	-0.33664738	0.23804565	914.85475247
1.23692147	-0.16832369	-0.23804565	988.38520776
1.23692147	0.00000000	-0.71413694	690.16278146
1.23692147	0.00000000	0.71413694	690.16278146
1.23692147	0.16832369	0.23804565	988.38520776
1.23692147	0.33664738	-0.23804565	914.85475247
1.23692147	0.50497108	-0.71413694	571.82812709
1.23692147	0.50497108	0.71413694	571.82812709
1.23692147	0.67329477	0.23804565	690.16277613
1.23692147	0.84161846	-0.23804565	571.82812306
1.64922863	0.00000000	0.00000000	431.99261191
