Position data Generated by SPaMD
480	atoms
1	atom types
0.000000		33.955268	xlo xhi
0.000000		35.645606	ylo yhi
0.000000		8.401750	zlo zhi
0.000000		0.000000	0.000000	xy xz yz

Atoms

1	1	0.000000	3.960623	1.400292
2	1	0.000000	0.000000	0.000000
3	1	0.000000	1.980311	2.800583
4	1	1.212688	3.960623	3.500729
5	1	1.212688	1.980311	0.700146
6	1	1.212688	0.000000	2.100437
7	1	0.000000	3.960623	5.601167
8	1	0.000000	0.000000	4.200875
9	1	0.000000	1.980311	7.001458
10	1	1.212688	3.960623	7.701604
11	1	1.212688	1.980311	4.901021
12	1	1.212688	0.000000	6.301312
13	1	0.000000	9.901557	1.400292
14	1	0.000000	5.940934	0.000000
15	1	0.000000	7.921246	2.800583
16	1	1.212688	9.901557	3.500729
17	1	1.212688	7.921246	0.700146
18	1	1.212688	5.940934	2.100437
19	1	0.000000	9.901557	5.601167
20	1	0.000000	5.940934	4.200875
21	1	0.000000	7.921246	7.001458
22	1	1.212688	9.901557	7.701604
23	1	1.212688	7.921246	4.901021
24	1	1.212688	5.940934	6.301312
25	1	0.000000	15.842491	1.400292
26	1	0.000000	11.881869	0.000000
27	1	0.000000	13.862180	2.800583
28	1	1.212688	15.842491	3.500729
29	1	1.212688	13.862180	0.700146
30	1	1.212688	11.881869	2.100437
31	1	0.000000	15.842491	5.601167
32	1	0.000000	11.881869	4.200875
33	1	0.000000	13.862180	7.001458
34	1	1.212688	15.842491	7.701604
35	1	1.212688	13.862180	4.901021
36	1	1.212688	11.881869	6.301312
37	1	0.000000	21.783426	1.400292
38	1	0.000000	17.822803	0.000000
39	1	0.000000	19.803114	2.800583
40	1	1.212688	21.783426	3.500729
41	1	1.212688	19.803114	0.700146
42	1	1.212688	17.822803	2.100437
43	1	0.000000	21.783426	5.601167
44	1	0.000000	17.822803	4.200875
45	1	0.000000	19.803114	7.001458
46	1	1.212688	21.783426	7.701604
47	1	1.212688	19.803114	4.901021
48	1	1.212688	17.822803	6.301312
49	1	0.000000	27.724360	1.400292
50	1	0.000000	23.763737	0.000000
51	1	0.000000	25.744049	2.800583
52	1	1.212688	27.724360	3.500729
53	1	1.212688	25.744049	0.700146
54	1	1.212688	23.763737	2.100437
55	1	0.000000	27.724360	5.601167
56	1	0.000000	23.763737	4.200875
57	1	0.000000	25.744049	7.001458
58	1	1.212688	27.724360	7.701604
59	1	1.212688	25.744049	4.901021
60	1	1.212688	23.763737	6.301312
61	1	0.000000	33.665294	1.400292
62	1	0.000000	29.704671	0.000000
63	1	0.000000	31.684983	2.800583
64	1	1.212688	33.665294	3.500729
65	1	1.212688	31.684983	0.700146
66	1	1.212688	29.704671	2.100437
67	1	0.000000	33.665294	5.601167
68	1	0.000000	29.704671	4.200875
69	1	0.000000	31.684983	7.001458
70	1	1.212688	33.665294	7.701604
71	1	1.212688	31.684983	4.901021
72	1	1.212688	29.704671	6.301312
73	1	2.425376	3.960623	1.400292
74	1	2.425376	0.000000	0.000000
75	1	2.425376	1.980311	2.800583
76	1	3.638064	3.960623	3.500729
77	1	3.638064	1.980311	0.700146
78	1	3.638064	0.000000	2.100437
79	1	2.425376	3.960623	5.601167
80	1	2.425376	0.000000	4.200875
81	1	2.425376	1.980311	7.001458
82	1	3.638064	3.960623	7.701604
83	1	3.638064	1.980311	4.901021
84	1	3.638064	0.000000	6.301312
85	1	2.425376	9.901557	1.400292
86	1	2.425376	5.940934	0.000000
87	1	2.425376	7.921246	2.800583
88	1	32.742580	29.704671	6.301312
89	1	32.742580	31.684983	4.901021
90	1	3.638064	5.940934	2.100437
91	1	2.425376	9.901557	5.601167
92	1	2.425376	5.940934	4.200875
93	1	2.425376	7.921246	7.001458
94	1	32.742580	33.665294	7.701604
95	1	31.529891	31.684983	7.001458
96	1	3.638064	5.940934	6.301312
97	1	2.425376	15.842491	1.400292
98	1	2.425376	11.881869	0.000000
99	1	2.425376	13.862180	2.800583
100	1	31.529891	29.704671	4.200875
101	1	31.529891	33.665294	5.601167
102	1	32.742580	29.704671	2.100437
103	1	2.425376	15.842491	5.601167
104	1	2.425376	11.881869	4.200875
105	1	2.425376	13.862180	7.001458
106	1	32.742580	31.684983	0.700146
107	1	32.742580	33.665294	3.500729
108	1	31.529891	31.684983	2.800583
109	1	2.425376	21.783426	1.400292
110	1	2.425376	17.822803	0.000000
111	1	2.425376	19.803114	2.800583
112	1	31.529891	29.704671	0.000000
113	1	31.529891	33.665294	1.400292
114	1	32.742580	23.763737	6.301312
115	1	2.425376	21.783426	5.601167
116	1	2.425376	17.822803	4.200875
117	1	2.425376	19.803114	7.001458
118	1	32.742580	25.744049	4.901021
119	1	32.742580	27.724360	7.701604
120	1	32.742580	23.763737	2.100437
121	1	2.425376	27.724360	1.400292
122	1	2.425376	23.763737	0.000000
123	1	2.425376	25.744049	2.800583
124	1	32.742580	25.744049	0.700146
125	1	32.742580	27.724360	3.500729
126	1	32.742580	17.822803	6.301312
127	1	2.425376	27.724360	5.601167
128	1	2.425376	23.763737	4.200875
129	1	2.425376	25.744049	7.001458
130	1	32.742580	19.803114	4.901021
131	1	32.742580	21.783426	7.701604
132	1	32.742580	17.822803	2.100437
133	1	2.425376	33.665294	1.400292
134	1	2.425376	29.704671	0.000000
135	1	2.425376	31.684983	2.800583
136	1	3.638064	33.665294	3.500729
137	1	3.638064	31.684983	0.700146
138	1	3.638064	29.704671	2.100437
139	1	2.425376	33.665294	5.601167
140	1	2.425376	29.704671	4.200875
141	1	2.425376	31.684983	7.001458
142	1	3.638064	33.665294	7.701604
143	1	3.638064	31.684983	4.901021
144	1	3.638064	29.704671	6.301312
145	1	4.850753	3.960623	1.400292
146	1	4.850753	0.000000	0.000000
147	1	4.850753	1.980311	2.800583
148	1	6.063441	3.960623	3.500729
149	1	6.063441	1.980311	0.700146
150	1	6.063441	0.000000	2.100437
151	1	4.850753	3.960623	5.601167
152	1	4.850753	0.000000	4.200875
153	1	4.850753	1.980311	7.001458
154	1	6.063441	3.960623	7.701604
155	1	6.063441	1.980311	4.901021
156	1	6.063441	0.000000	6.301312
157	1	32.742580	19.803114	0.700146
158	1	4.850753	5.940934	0.000000
159	1	32.742580	21.783426	3.500729
160	1	32.742580	11.881869	6.301312
161	1	32.742580	13.862180	4.901021
162	1	6.063441	5.940934	2.100437
163	1	32.742580	15.842491	7.701604
164	1	4.850753	5.940934	4.200875
165	1	32.742580	11.881869	2.100437
166	1	32.742580	13.862180	0.700146
167	1	32.742580	15.842491	3.500729
168	1	6.063441	5.940934	6.301312
169	1	32.742580	5.940934	6.301312
170	1	32.742580	7.921246	4.901021
171	1	32.742580	9.901557	7.701604
172	1	31.529891	5.940934	4.200875
173	1	32.742580	5.940934	2.100437
174	1	32.742580	7.921246	0.700146
175	1	32.742580	9.901557	3.500729
176	1	31.529891	5.940934	0.000000
177	1	32.742580	0.000000	6.301312
178	1	32.742580	1.980311	4.901021
179	1	32.742580	3.960623	7.701604
180	1	31.529891	1.980311	7.001458
181	1	31.529891	0.000000	4.200875
182	1	31.529891	3.960623	5.601167
183	1	32.742580	0.000000	2.100437
184	1	32.742580	1.980311	0.700146
185	1	32.742580	3.960623	3.500729
186	1	31.529891	1.980311	2.800583
187	1	31.529891	0.000000	0.000000
188	1	31.529891	3.960623	1.400292
189	1	30.317203	29.704671	6.301312
190	1	30.317203	31.684983	4.901021
191	1	30.317203	33.665294	7.701604
192	1	29.104515	31.684983	7.001458
193	1	29.104515	29.704671	4.200875
194	1	29.104515	33.665294	5.601167
195	1	30.317203	29.704671	2.100437
196	1	30.317203	31.684983	0.700146
197	1	30.317203	33.665294	3.500729
198	1	29.104515	31.684983	2.800583
199	1	29.104515	29.704671	0.000000
200	1	29.104515	33.665294	1.400292
201	1	30.317203	5.940934	6.301312
202	1	29.104515	5.940934	4.200875
203	1	30.317203	5.940934	2.100437
204	1	29.104515	5.940934	0.000000
205	1	4.850753	33.665294	1.400292
206	1	4.850753	29.704671	0.000000
207	1	4.850753	31.684983	2.800583
208	1	6.063441	33.665294	3.500729
209	1	6.063441	31.684983	0.700146
210	1	6.063441	29.704671	2.100437
211	1	4.850753	33.665294	5.601167
212	1	4.850753	29.704671	4.200875
213	1	4.850753	31.684983	7.001458
214	1	6.063441	33.665294	7.701604
215	1	6.063441	31.684983	4.901021
216	1	6.063441	29.704671	6.301312
217	1	7.276129	3.960623	1.400292
218	1	7.276129	0.000000	0.000000
219	1	7.276129	1.980311	2.800583
220	1	8.488817	3.960623	3.500729
221	1	8.488817	1.980311	0.700146
222	1	8.488817	0.000000	2.100437
223	1	7.276129	3.960623	5.601167
224	1	7.276129	0.000000	4.200875
225	1	7.276129	1.980311	7.001458
226	1	8.488817	3.960623	7.701604
227	1	8.488817	1.980311	4.901021
228	1	8.488817	0.000000	6.301312
229	1	30.317203	0.000000	6.301312
230	1	7.276129	5.940934	0.000000
231	1	30.317203	1.980311	4.901021
232	1	30.317203	3.960623	7.701604
233	1	29.104515	1.980311	7.001458
234	1	8.488817	5.940934	2.100437
235	1	29.104515	0.000000	4.200875
236	1	7.276129	5.940934	4.200875
237	1	29.104515	3.960623	5.601167
238	1	30.317203	0.000000	2.100437
239	1	30.317203	1.980311	0.700146
240	1	8.488817	5.940934	6.301312
241	1	30.317203	3.960623	3.500729
242	1	29.104515	1.980311	2.800583
243	1	29.104515	0.000000	0.000000
244	1	29.104515	3.960623	1.400292
245	1	27.891827	29.704671	6.301312
246	1	27.891827	31.684983	4.901021
247	1	27.891827	33.665294	7.701604
248	1	26.679139	31.684983	7.001458
249	1	26.679139	29.704671	4.200875
250	1	26.679139	33.665294	5.601167
251	1	27.891827	29.704671	2.100437
252	1	27.891827	31.684983	0.700146
253	1	27.891827	33.665294	3.500729
254	1	26.679139	31.684983	2.800583
255	1	26.679139	29.704671	0.000000
256	1	26.679139	33.665294	1.400292
257	1	27.891827	5.940934	6.301312
258	1	26.679139	5.940934	4.200875
259	1	27.891827	5.940934	2.100437
260	1	26.679139	5.940934	0.000000
261	1	27.891827	0.000000	6.301312
262	1	27.891827	1.980311	4.901021
263	1	27.891827	3.960623	7.701604
264	1	26.679139	1.980311	7.001458
265	1	26.679139	0.000000	4.200875
266	1	26.679139	3.960623	5.601167
267	1	27.891827	0.000000	2.100437
268	1	27.891827	1.980311	0.700146
269	1	27.891827	3.960623	3.500729
270	1	26.679139	1.980311	2.800583
271	1	26.679139	0.000000	0.000000
272	1	26.679139	3.960623	1.400292
273	1	25.466451	29.704671	6.301312
274	1	25.466451	31.684983	4.901021
275	1	25.466451	33.665294	7.701604
276	1	24.253763	31.684983	7.001458
277	1	7.276129	33.665294	1.400292
278	1	7.276129	29.704671	0.000000
279	1	7.276129	31.684983	2.800583
280	1	8.488817	33.665294	3.500729
281	1	8.488817	31.684983	0.700146
282	1	8.488817	29.704671	2.100437
283	1	7.276129	33.665294	5.601167
284	1	7.276129	29.704671	4.200875
285	1	7.276129	31.684983	7.001458
286	1	8.488817	33.665294	7.701604
287	1	8.488817	31.684983	4.901021
288	1	8.488817	29.704671	6.301312
289	1	9.701505	3.960623	1.400292
290	1	9.701505	0.000000	0.000000
291	1	9.701505	1.980311	2.800583
292	1	10.914193	3.960623	3.500729
293	1	10.914193	1.980311	0.700146
294	1	10.914193	0.000000	2.100437
295	1	9.701505	3.960623	5.601167
296	1	9.701505	0.000000	4.200875
297	1	9.701505	1.980311	7.001458
298	1	10.914193	3.960623	7.701604
299	1	10.914193	1.980311	4.901021
300	1	10.914193	0.000000	6.301312
301	1	24.253763	29.704671	4.200875
302	1	9.701505	5.940934	0.000000
303	1	24.253763	33.665294	5.601167
304	1	25.466451	29.704671	2.100437
305	1	25.466451	31.684983	0.700146
306	1	10.914193	5.940934	2.100437
307	1	25.466451	33.665294	3.500729
308	1	9.701505	5.940934	4.200875
309	1	24.253763	31.684983	2.800583
310	1	24.253763	29.704671	0.000000
311	1	24.253763	33.665294	1.400292
312	1	10.914193	5.940934	6.301312
313	1	25.466451	5.940934	6.301312
314	1	24.253763	5.940934	4.200875
315	1	25.466451	5.940934	2.100437
316	1	24.253763	5.940934	0.000000
317	1	25.466451	0.000000	6.301312
318	1	25.466451	1.980311	4.901021
319	1	25.466451	3.960623	7.701604
320	1	24.253763	1.980311	7.001458
321	1	24.253763	0.000000	4.200875
322	1	24.253763	3.960623	5.601167
323	1	25.466451	0.000000	2.100437
324	1	25.466451	1.980311	0.700146
325	1	25.466451	3.960623	3.500729
326	1	24.253763	1.980311	2.800583
327	1	24.253763	0.000000	0.000000
328	1	24.253763	3.960623	1.400292
329	1	23.041074	29.704671	6.301312
330	1	23.041074	31.684983	4.901021
331	1	23.041074	33.665294	7.701604
332	1	21.828386	31.684983	7.001458
333	1	21.828386	29.704671	4.200875
334	1	21.828386	33.665294	5.601167
335	1	23.041074	29.704671	2.100437
336	1	23.041074	31.684983	0.700146
337	1	23.041074	33.665294	3.500729
338	1	21.828386	31.684983	2.800583
339	1	21.828386	29.704671	0.000000
340	1	21.828386	33.665294	1.400292
341	1	23.041074	5.940934	6.301312
342	1	21.828386	5.940934	4.200875
343	1	23.041074	5.940934	2.100437
344	1	21.828386	5.940934	0.000000
345	1	23.041074	0.000000	6.301312
346	1	23.041074	1.980311	4.901021
347	1	23.041074	3.960623	7.701604
348	1	21.828386	1.980311	7.001458
349	1	9.701505	33.665294	1.400292
350	1	9.701505	29.704671	0.000000
351	1	9.701505	31.684983	2.800583
352	1	10.914193	33.665294	3.500729
353	1	10.914193	31.684983	0.700146
354	1	10.914193	29.704671	2.100437
355	1	9.701505	33.665294	5.601167
356	1	9.701505	29.704671	4.200875
357	1	9.701505	31.684983	7.001458
358	1	10.914193	33.665294	7.701604
359	1	10.914193	31.684983	4.901021
360	1	10.914193	29.704671	6.301312
361	1	12.126881	3.960623	1.400292
362	1	12.126881	0.000000	0.000000
363	1	12.126881	1.980311	2.800583
364	1	13.339569	3.960623	3.500729
365	1	13.339569	1.980311	0.700146
366	1	13.339569	0.000000	2.100437
367	1	12.126881	3.960623	5.601167
368	1	12.126881	0.000000	4.200875
369	1	12.126881	1.980311	7.001458
370	1	13.339569	3.960623	7.701604
371	1	13.339569	1.980311	4.901021
372	1	13.339569	0.000000	6.301312
373	1	21.828386	0.000000	4.200875
374	1	12.126881	5.940934	0.000000
375	1	21.828386	3.960623	5.601167
376	1	23.041074	0.000000	2.100437
377	1	23.041074	1.980311	0.700146
378	1	13.339569	5.940934	2.100437
379	1	23.041074	3.960623	3.500729
380	1	12.126881	5.940934	4.200875
381	1	21.828386	1.980311	2.800583
382	1	21.828386	0.000000	0.000000
383	1	21.828386	3.960623	1.400292
384	1	13.339569	5.940934	6.301312
385	1	20.615698	29.704671	6.301312
386	1	20.615698	31.684983	4.901021
387	1	20.615698	33.665294	7.701604
388	1	19.403010	31.684983	7.001458
389	1	19.403010	29.704671	4.200875
390	1	19.403010	33.665294	5.601167
391	1	20.615698	29.704671	2.100437
392	1	20.615698	31.684983	0.700146
393	1	20.615698	33.665294	3.500729
394	1	19.403010	31.684983	2.800583
395	1	19.403010	29.704671	0.000000
396	1	19.403010	33.665294	1.400292
397	1	20.615698	5.940934	6.301312
398	1	19.403010	5.940934	4.200875
399	1	20.615698	5.940934	2.100437
400	1	19.403010	5.940934	0.000000
401	1	20.615698	0.000000	6.301312
402	1	20.615698	1.980311	4.901021
403	1	20.615698	3.960623	7.701604
404	1	19.403010	1.980311	7.001458
405	1	19.403010	0.000000	4.200875
406	1	19.403010	3.960623	5.601167
407	1	20.615698	0.000000	2.100437
408	1	20.615698	1.980311	0.700146
409	1	20.615698	3.960623	3.500729
410	1	19.403010	1.980311	2.800583
411	1	19.403010	0.000000	0.000000
412	1	19.403010	3.960623	1.400292
413	1	18.190322	29.704671	6.301312
414	1	18.190322	31.684983	4.901021
415	1	18.190322	33.665294	7.701604
416	1	16.977634	31.684983	7.001458
417	1	16.977634	29.704671	4.200875
418	1	16.977634	33.665294	5.601167
419	1	18.190322	29.704671	2.100437
420	1	18.190322	31.684983	0.700146
421	1	12.126881	33.665294	1.400292
422	1	12.126881	29.704671	0.000000
423	1	12.126881	31.684983	2.800583
424	1	13.339569	33.665294	3.500729
425	1	13.339569	31.684983	0.700146
426	1	13.339569	29.704671	2.100437
427	1	12.126881	33.665294	5.601167
428	1	12.126881	29.704671	4.200875
429	1	12.126881	31.684983	7.001458
430	1	13.339569	33.665294	7.701604
431	1	13.339569	31.684983	4.901021
432	1	13.339569	29.704671	6.301312
433	1	14.552258	3.960623	1.400292
434	1	14.552258	0.000000	0.000000
435	1	14.552258	1.980311	2.800583
436	1	15.764946	3.960623	3.500729
437	1	15.764946	1.980311	0.700146
438	1	15.764946	0.000000	2.100437
439	1	14.552258	3.960623	5.601167
440	1	14.552258	0.000000	4.200875
441	1	14.552258	1.980311	7.001458
442	1	15.764946	3.960623	7.701604
443	1	15.764946	1.980311	4.901021
444	1	15.764946	0.000000	6.301312
445	1	18.190322	33.665294	3.500729
446	1	14.552258	5.940934	0.000000
447	1	16.977634	31.684983	2.800583
448	1	16.977634	29.704671	0.000000
449	1	16.977634	33.665294	1.400292
450	1	15.764946	5.940934	2.100437
451	1	18.190322	5.940934	6.301312
452	1	14.552258	5.940934	4.200875
453	1	16.977634	5.940934	4.200875
454	1	18.190322	5.940934	2.100437
455	1	16.977634	5.940934	0.000000
456	1	15.764946	5.940934	6.301312
457	1	18.190322	0.000000	6.301312
458	1	18.190322	1.980311	4.901021
459	1	18.190322	3.960623	7.701604
460	1	16.977634	1.980311	7.001458
461	1	16.977634	0.000000	4.200875
462	1	16.977634	3.960623	5.601167
463	1	18.190322	0.000000	2.100437
464	1	18.190322	1.980311	0.700146
465	1	18.190322	3.960623	3.500729
466	1	16.977634	1.980311	2.800583
467	1	16.977634	0.000000	0.000000
468	1	16.977634	3.960623	1.400292
469	1	15.764946	29.704671	6.301312
470	1	15.764946	31.684983	4.901021
471	1	15.764946	33.665294	7.701604
472	1	14.552258	31.684983	7.001458
473	1	14.552258	29.704671	4.200875
474	1	14.552258	33.665294	5.601167
475	1	15.764946	29.704671	2.100437
476	1	15.764946	31.684983	0.700146
477	1	15.764946	33.665294	3.500729
478	1	14.552258	31.684983	2.800583
479	1	14.552258	29.704671	0.000000
480	1	14.552258	33.665294	1.400292
