Kikuchi_sphere_radius
39.84063745
Kikuchi_line_intensity
59638
-1.64922863	0.00000000	0.00000000	431.99261191
-1.61977812	-0.19637764	-0.47609129	0.42564770
-1.61977812	-0.19637764	0.47609129	2.35067110
-1.61977812	-0.16832369	-0.47609129	0.00120336
-1.61977812	-0.16832369	0.47609129	1.54670119
-1.61977812	-0.14026974	-0.47609129	0.31817676
-1.61977812	-0.14026974	0.47609129	2.37715066
-1.61977812	-0.11221579	0.47609129	0.08440559
-1.61977812	-0.08416185	-0.47609129	0.26697530
-1.61977812	-0.08416185	0.47609129	1.00168530
-1.61977812	-0.05610790	0.47609129	0.00489065
-1.61977812	-0.02805395	-0.47609129	0.32177809
-1.61977812	-0.02805395	0.47609129	0.43531532
-1.61977812	0.00000000	-0.47609129	0.00122380
-1.61977812	0.00000000	0.47609129	0.00122380
-1.61977812	0.02805395	-0.47609129	0.43531526
-1.61977812	0.02805395	0.47609129	0.32177808
-1.61977812	0.05610790	-0.47609129	0.00489065
-1.61977812	0.08416185	-0.47609129	1.00168529
-1.61977812	0.08416185	0.47609129	0.26697525
-1.61977812	0.11221579	-0.47609129	0.08440562
-1.61977812	0.14026974	-0.47609129	2.37715085
-1.61977812	0.14026974	0.47609129	0.31817677
-1.61977812	0.16832369	-0.47609129	1.54670336
-1.61977812	0.16832369	0.47609129	0.00120336
-1.61977812	0.19637764	-0.47609129	2.35067132
-1.61977812	0.19637764	0.47609129	0.42564771
-1.59032760	-0.36470133	-0.47609129	0.01062843
-1.59032760	-0.36470133	0.47609129	0.00020469
-1.59032760	-0.33664738	-0.47609129	0.02982371
-1.59032760	-0.30859344	-0.47609129	0.01086982
-1.59032760	-0.30859344	0.47609129	0.00040577
-1.59032760	-0.28053949	-0.47609129	0.00221965
-1.59032760	-0.25248554	-0.47609129	0.00111757
-1.59032760	-0.25248554	0.47609129	0.00111760
-1.59032760	-0.22443159	0.47609129	0.00225784
-1.59032760	-0.19637764	-0.47609129	0.00041984
-1.59032760	-0.19637764	0.47609129	0.01124715
-1.59032760	-0.16832369	0.47609129	0.03138892
-1.59032760	-0.14026974	-0.47609129	0.00021910
-1.59032760	-0.14026974	0.47609129	0.01137710
-1.59032760	-0.11221579	0.47609129	0.00231029
-1.59032760	-0.08416185	-0.47609129	0.00018916
-1.59032760	-0.08416185	0.47609129	0.00115672
-1.59032760	-0.02805395	-0.47609129	0.00022164
-1.59032760	-0.02805395	0.47609129	0.00042964
-1.59032760	0.02805395	-0.47609129	0.00042963
-1.59032760	0.02805395	0.47609129	0.00022165
-1.59032760	0.08416185	-0.47609129	0.00115669
-1.59032760	0.08416185	0.47609129	0.00018917
-1.59032760	0.11221579	-0.47609129	0.00231030
-1.59032760	0.14026974	-0.47609129	0.01137698
-1.59032760	0.14026974	0.47609129	0.00021911
-1.59032760	0.16832369	-0.47609129	0.03138788
-1.59032760	0.19637764	-0.47609129	0.01124703
-1.59032760	0.19637764	0.47609129	0.00041986
-1.59032760	0.22443159	-0.47609129	0.00225785
-1.59032760	0.25248554	-0.47609129	0.00111757
-1.59032760	0.25248554	0.47609129	0.00111760
-1.59032760	0.28053949	0.47609129	0.00221964
-1.59032760	0.30859344	-0.47609129	0.00040576
-1.59032760	0.30859344	0.47609129	0.01086993
-1.59032760	0.33664738	0.47609129	0.02982470
-1.59032760	0.36470133	-0.47609129	0.00020468
-1.59032760	0.36470133	0.47609129	0.01062854
-1.56087709	-0.44886318	-0.47609129	0.00228202
-1.56087709	-0.42080923	-0.47609129	0.03337785
-1.56087709	-0.42080923	0.47609129	0.02444090
-1.56087709	-0.39275528	-0.47609129	0.01014167
-1.56087709	-0.36470133	-0.47609129	0.00500324
-1.56087709	-0.36470133	0.47609129	0.02700210
-1.56087709	-0.33664738	-0.47609129	0.02114230
-1.56087709	-0.33664738	0.47609129	0.00050028
-1.56087709	-0.30859344	-0.47609129	0.00511979
-1.56087709	-0.30859344	0.47609129	0.03220052
-1.56087709	-0.28053949	-0.47609129	0.01061932
-1.56087709	-0.28053949	0.47609129	0.00245806
-1.56087709	-0.25248554	-0.47609129	0.03576092
-1.56087709	-0.25248554	0.47609129	0.03576084
-1.56087709	-0.22443159	-0.47609129	0.00250147
-1.56087709	-0.22443159	0.47609129	0.01080693
-1.56087709	-0.19637764	-0.47609129	0.03334720
-1.56087709	-0.19637764	0.47609129	0.00530207
-1.56087709	-0.16832369	-0.47609129	0.00052721
-1.56087709	-0.16832369	0.47609129	0.02228162
-1.56087709	-0.14026974	-0.47609129	0.02895428
-1.56087709	-0.14026974	0.47609129	0.00536498
-1.56087709	-0.11221579	0.47609129	0.01106455
-1.56087709	-0.08416185	-0.47609129	0.02712671
-1.56087709	-0.08416185	0.47609129	0.03704586
-1.56087709	-0.05610790	0.47609129	0.00257632
-1.56087709	-0.02805395	-0.47609129	0.02929945
-1.56087709	-0.02805395	0.47609129	0.03414488
-1.56087709	0.00000000	-0.47609129	0.00053665
-1.56087709	0.00000000	0.47609129	0.00053665
-1.56087709	0.02805395	-0.47609129	0.03414488
-1.56087709	0.02805395	0.47609129	0.02929947
-1.56087709	0.05610790	-0.47609129	0.00257633
-1.56087709	0.08416185	-0.47609129	0.03704585
-1.56087709	0.08416185	0.47609129	0.02712675
-1.56087709	0.11221579	-0.47609129	0.01106448
-1.56087709	0.14026974	-0.47609129	0.00536499
-1.56087709	0.14026974	0.47609129	0.02895428
-1.56087709	0.16832369	-0.47609129	0.02228039
-1.56087709	0.16832369	0.47609129	0.00052721
-1.56087709	0.19637764	-0.47609129	0.00530208
-1.56087709	0.19637764	0.47609129	0.03334723
-1.56087709	0.22443159	-0.47609129	0.01080687
-1.56087709	0.22443159	0.47609129	0.00250146
-1.56087709	0.25248554	-0.47609129	0.03576085
-1.56087709	0.25248554	0.47609129	0.03576091
-1.56087709	0.28053949	-0.47609129	0.00245806
-1.56087709	0.28053949	0.47609129	0.01061937
-1.56087709	0.30859344	-0.47609129	0.03220049
-1.56087709	0.30859344	0.47609129	0.00511979
-1.56087709	0.33664738	-0.47609129	0.00050028
-1.56087709	0.33664738	0.47609129	0.02114347
-1.56087709	0.36470133	-0.47609129	0.02700209
-1.56087709	0.36470133	0.47609129	0.00500323
-1.56087709	0.39275528	0.47609129	0.01014173
-1.56087709	0.42080923	-0.47609129	0.02444087
-1.56087709	0.42080923	0.47609129	0.03337786
-1.56087709	0.44886318	0.47609129	0.00228202
-1.53142658	-0.56107897	0.47609129	0.00015374
-1.53142658	-0.47691713	-0.47609129	0.00010062
-1.53142658	-0.44886318	-0.47609129	0.00016457
-1.53142658	-0.39275528	-0.47609129	0.00075505
-1.53142658	-0.36470133	-0.47609129	0.00023373
-1.53142658	-0.33664738	-0.47609129	0.00202125
-1.53142658	-0.30859344	-0.47609129	0.00023931
-1.53142658	-0.30859344	0.47609129	0.00010916
-1.53142658	-0.28053949	-0.47609129	0.00079155
-1.53142658	-0.28053949	0.47609129	0.00017760
-1.53142658	-0.25248554	-0.47609129	0.00010096
-1.53142658	-0.25248554	0.47609129	0.00010094
-1.53142658	-0.22443159	-0.47609129	0.00018082
-1.53142658	-0.22443159	0.47609129	0.00080590
-1.53142658	-0.19637764	-0.47609129	0.00011316
-1.53142658	-0.19637764	0.47609129	0.00024804
-1.53142658	-0.16832369	0.47609129	0.00213150
-1.53142658	-0.14026974	0.47609129	0.00025106
-1.53142658	-0.11221579	0.47609129	0.00082563
-1.53142658	-0.08416185	0.47609129	0.00010466
-1.53142658	-0.05610790	-0.71413694	0.00013717
-1.53142658	-0.05610790	0.47609129	0.00018638
-1.53142658	-0.05610790	0.71413694	0.00013717
-1.53142658	-0.02805395	0.47609129	0.00011593
-1.53142658	0.00000000	-0.71413694	0.00017295
-1.53142658	0.00000000	0.71413694	0.00017311
-1.53142658	0.02805395	-0.47609129	0.00011594
-1.53142658	0.05610790	-0.71413694	0.00013717
-1.53142658	0.05610790	-0.47609129	0.00018638
-1.53142658	0.05610790	0.71413694	0.00013717
-1.53142658	0.08416185	-0.47609129	0.00010469
-1.53142658	0.11221579	-0.47609129	0.00082562
-1.53142658	0.14026974	-0.47609129	0.00025108
-1.53142658	0.16832369	-0.47609129	0.00213296
-1.53142658	0.19637764	-0.47609129	0.00024806
-1.53142658	0.19637764	0.47609129	0.00011315
-1.53142658	0.22443159	-0.47609129	0.00080590
-1.53142658	0.22443159	0.47609129	0.00018082
-1.53142658	0.25248554	-0.47609129	0.00010096
-1.53142658	0.25248554	0.47609129	0.00010094
-1.53142658	0.28053949	-0.47609129	0.00017760
-1.53142658	0.28053949	0.47609129	0.00079155
-1.53142658	0.30859344	-0.47609129	0.00010917
-1.53142658	0.30859344	0.47609129	0.00023929
-1.53142658	0.33664738	0.47609129	0.00201986
-1.53142658	0.36470133	0.47609129	0.00023371
-1.53142658	0.39275528	0.47609129	0.00075506
-1.53142658	0.44886318	0.47609129	0.00016457
-1.53142658	0.47691713	0.47609129	0.00010061
-1.53142658	0.56107897	-0.47609129	0.00015374
-1.50197607	-0.64524082	0.23804565	0.00012519
-1.50197607	-0.61718687	0.47609129	0.00150425
-1.50197607	-0.58913292	-0.47609129	0.00571674
-1.50197607	-0.58913292	0.23804565	0.00014275
-1.50197607	-0.58913292	0.47609129	0.00368914
-1.50197607	-0.56107897	0.47609129	0.00069208
-1.50197607	-0.53302502	-0.47609129	0.00591630
-1.50197607	-0.53302502	0.23804565	0.00013605
-1.50197607	-0.53302502	0.47609129	0.00550690
-1.50197607	-0.50497108	-0.47609129	0.00020414
-1.50197607	-0.50497108	0.47609129	0.00020413
-1.50197607	-0.47691713	-0.47609129	0.00570253
-1.50197607	-0.47691713	-0.23804565	0.00014113
-1.50197607	-0.47691713	0.23804565	0.00010287
-1.50197607	-0.47691713	0.47609129	0.00612648
-1.50197607	-0.44886318	-0.47609129	0.00074209
-1.50197607	-0.42080923	-0.47609129	0.00409577
-1.50197607	-0.42080923	-0.23804565	0.00015931
-1.50197607	-0.42080923	0.47609129	0.00634686
-1.50197607	-0.39275528	-0.47609129	0.00172897
-1.50197607	-0.36470133	-0.47609129	0.00170487
-1.50197607	-0.36470133	-0.23804565	0.00015023
-1.50197607	-0.36470133	0.47609129	0.00650163
-1.50197607	-0.33664738	-0.47609129	0.00281599
-1.50197607	-0.33664738	0.47609129	0.00022315
-1.50197607	-0.30859344	-0.71413694	0.00075317
-1.50197607	-0.30859344	-0.47609129	0.00174669
-1.50197607	-0.30859344	-0.23804565	0.00011233
-1.50197607	-0.30859344	0.47609129	0.00620012
-1.50197607	-0.30859344	0.71413694	0.00075317
-1.50197607	-0.28053949	-0.47609129	0.00181476
-1.50197607	-0.28053949	0.47609129	0.00080243
-1.50197607	-0.25248554	-0.71413694	0.00083476
-1.50197607	-0.25248554	-0.47609129	0.00440403
-1.50197607	-0.25248554	0.47609129	0.00440401
-1.50197607	-0.25248554	0.71413694	0.00083476
-1.50197607	-0.22443159	-0.47609129	0.00081736
-1.50197607	-0.22443159	0.47609129	0.00184854
-1.50197607	-0.19637764	-0.71413694	0.00077924
-1.50197607	-0.19637764	-0.47609129	0.00643293
-1.50197607	-0.19637764	0.23804565	0.00011678
-1.50197607	-0.19637764	0.47609129	0.00181223
-1.50197607	-0.19637764	0.71413694	0.00077923
-1.50197607	-0.16832369	-0.71413694	0.00010338
-1.50197607	-0.16832369	-0.47609129	0.00023582
-1.50197607	-0.16832369	0.47609129	0.00297549
-1.50197607	-0.16832369	0.71413694	0.00010339
-1.50197607	-0.14026974	-0.71413694	0.00058010
-1.50197607	-0.14026974	-0.47609129	0.00699760
-1.50197607	-0.14026974	0.23804565	0.00016233
-1.50197607	-0.14026974	0.47609129	0.00183491
-1.50197607	-0.14026974	0.71413694	0.00058009
-1.50197607	-0.11221579	-0.71413694	0.00027360
-1.50197607	-0.11221579	0.47609129	0.00189502
-1.50197607	-0.11221579	0.71413694	0.00027361
-1.50197607	-0.08416185	-0.71413694	0.00029979
-1.50197607	-0.08416185	-0.47609129	0.00708325
-1.50197607	-0.08416185	0.23804565	0.00017885
-1.50197607	-0.08416185	0.47609129	0.00457098
-1.50197607	-0.08416185	0.71413694	0.00029978
-1.50197607	-0.05610790	-0.71413694	0.00043333
-1.50197607	-0.05610790	0.47609129	0.00084317
-1.50197607	-0.05610790	0.71413694	0.00043333
-1.50197607	-0.02805395	-0.71413694	0.00020764
-1.50197607	-0.02805395	-0.47609129	0.00708561
-1.50197607	-0.02805395	-0.23804565	0.00011989
-1.50197607	-0.02805395	0.23804565	0.00016449
-1.50197607	-0.02805395	0.47609129	0.00659528
-1.50197607	-0.02805395	0.71413694	0.00020764
-1.50197607	0.00000000	-0.71413694	0.00064148
-1.50197607	0.00000000	-0.47609129	0.00024028
-1.50197607	0.00000000	0.47609129	0.00024028
-1.50197607	0.00000000	0.71413694	0.00064155
-1.50197607	0.02805395	-0.71413694	0.00020763
-1.50197607	0.02805395	-0.47609129	0.00659529
-1.50197607	0.02805395	-0.23804565	0.00016449
-1.50197607	0.02805395	0.23804565	0.00011989
-1.50197607	0.02805395	0.47609129	0.00708560
-1.50197607	0.02805395	0.71413694	0.00020765
-1.50197607	0.05610790	-0.71413694	0.00043333
-1.50197607	0.05610790	-0.47609129	0.00084317
-1.50197607	0.05610790	0.71413694	0.00043333
-1.50197607	0.08416185	-0.71413694	0.00029978
-1.50197607	0.08416185	-0.47609129	0.00457099
-1.50197607	0.08416185	-0.23804565	0.00017885
-1.50197607	0.08416185	0.47609129	0.00708325
-1.50197607	0.08416185	0.71413694	0.00029979
-1.50197607	0.11221579	-0.71413694	0.00027361
-1.50197607	0.11221579	-0.47609129	0.00189503
-1.50197607	0.11221579	0.71413694	0.00027360
-1.50197607	0.14026974	-0.71413694	0.00058009
-1.50197607	0.14026974	-0.47609129	0.00183493
-1.50197607	0.14026974	-0.23804565	0.00016233
-1.50197607	0.14026974	0.47609129	0.00699760
-1.50197607	0.14026974	0.71413694	0.00058010
-1.50197607	0.16832369	-0.71413694	0.00010339
-1.50197607	0.16832369	-0.47609129	0.00297588
-1.50197607	0.16832369	0.47609129	0.00023582
-1.50197607	0.16832369	0.71413694	0.00010338
-1.50197607	0.19637764	-0.71413694	0.00077923
-1.50197607	0.19637764	-0.47609129	0.00181226
-1.50197607	0.19637764	-0.23804565	0.00011678
-1.50197607	0.19637764	0.47609129	0.00643292
-1.50197607	0.19637764	0.71413694	0.00077924
-1.50197607	0.22443159	-0.47609129	0.00184854
-1.50197607	0.22443159	0.47609129	0.00081736
-1.50197607	0.25248554	-0.71413694	0.00083476
-1.50197607	0.25248554	-0.47609129	0.00440402
-1.50197607	0.25248554	0.47609129	0.00440402
-1.50197607	0.25248554	0.71413694	0.00083476
-1.50197607	0.28053949	-0.47609129	0.00080243
-1.50197607	0.28053949	0.47609129	0.00181476
-1.50197607	0.30859344	-0.71413694	0.00075317
-1.50197607	0.30859344	-0.47609129	0.00620014
-1.50197607	0.30859344	0.23804565	0.00011233
-1.50197607	0.30859344	0.47609129	0.00174666
-1.50197607	0.30859344	0.71413694	0.00075317
-1.50197607	0.33664738	-0.47609129	0.00022315
-1.50197607	0.33664738	0.47609129	0.00281563
-1.50197607	0.36470133	-0.47609129	0.00650163
-1.50197607	0.36470133	0.23804565	0.00015023
-1.50197607	0.36470133	0.47609129	0.00170485
-1.50197607	0.39275528	0.47609129	0.00172897
-1.50197607	0.42080923	-0.47609129	0.00634687
-1.50197607	0.42080923	0.23804565	0.00015931
-1.50197607	0.42080923	0.47609129	0.00409576
-1.50197607	0.44886318	0.47609129	0.00074210
-1.50197607	0.47691713	-0.47609129	0.00612649
-1.50197607	0.47691713	-0.23804565	0.00010287
-1.50197607	0.47691713	0.23804565	0.00014113
-1.50197607	0.47691713	0.47609129	0.00570252
-1.50197607	0.50497108	-0.47609129	0.00020413
-1.50197607	0.50497108	0.47609129	0.00020414
-1.50197607	0.53302502	-0.47609129	0.00550691
-1.50197607	0.53302502	-0.23804565	0.00013605
-1.50197607	0.53302502	0.47609129	0.00591630
-1.50197607	0.56107897	-0.47609129	0.00069208
-1.50197607	0.58913292	-0.47609129	0.00368915
-1.50197607	0.58913292	-0.23804565	0.00014275
-1.50197607	0.58913292	0.47609129	0.00571673
-1.50197607	0.61718687	-0.47609129	0.00150426
-1.50197607	0.64524082	-0.23804565	0.00012519
-1.47252556	-0.70134872	0.47609129	0.00013383
-1.47252556	-0.67329477	0.47609129	0.00036413
-1.47252556	-0.64524082	0.47609129	0.00014002
-1.47252556	-0.61718687	0.47609129	0.00024255
-1.47252556	-0.44886318	-0.71413694	0.00026250
-1.47252556	-0.44886318	-0.47609129	0.00010735
-1.47252556	-0.44886318	0.71413694	0.00026250
-1.47252556	-0.39275528	-0.71413694	0.00016026
-1.47252556	-0.39275528	-0.47609129	0.00027975
-1.47252556	-0.39275528	0.71413694	0.00016026
-1.47252556	-0.36470133	-0.71413694	0.00010625
-1.47252556	-0.36470133	-0.47609129	0.00016731
-1.47252556	-0.36470133	0.71413694	0.00010625
-1.47252556	-0.33664738	-0.47609129	0.00045092
-1.47252556	-0.30859344	-0.71413694	0.00013834
-1.47252556	-0.30859344	-0.47609129	0.00017152
-1.47252556	-0.30859344	0.71413694	0.00013834
-1.47252556	-0.28053949	-0.47609129	0.00029400
-1.47252556	-0.28053949	0.47609129	0.00011631
-1.47252556	-0.25248554	-0.71413694	0.00015033
-1.47252556	-0.25248554	0.71413694	0.00015033
-1.47252556	-0.22443159	-0.47609129	0.00011853
-1.47252556	-0.22443159	0.47609129	0.00029963
-1.47252556	-0.19637764	-0.71413694	0.00014324
-1.47252556	-0.19637764	0.47609129	0.00017813
-1.47252556	-0.19637764	0.71413694	0.00014324
-1.47252556	-0.16832369	0.47609129	0.00047695
-1.47252556	-0.14026974	-0.71413694	0.00011389
-1.47252556	-0.14026974	0.47609129	0.00018042
-1.47252556	-0.14026974	0.71413694	0.00011390
-1.47252556	-0.11221579	-0.71413694	0.00017478
-1.47252556	-0.11221579	0.47609129	0.00030738
-1.47252556	-0.11221579	0.71413694	0.00017479
-1.47252556	-0.05610790	-0.71413694	0.00029620
-1.47252556	-0.05610790	0.47609129	0.00012238
-1.47252556	-0.05610790	0.71413694	0.00029620
-1.47252556	0.00000000	-0.71413694	0.00050247
-1.47252556	0.00000000	0.71413694	0.00050246
-1.47252556	0.05610790	-0.71413694	0.00029620
-1.47252556	0.05610790	-0.47609129	0.00012238
-1.47252556	0.05610790	0.71413694	0.00029620
-1.47252556	0.11221579	-0.71413694	0.00017478
-1.47252556	0.11221579	-0.47609129	0.00030737
-1.47252556	0.11221579	0.71413694	0.00017478
-1.47252556	0.14026974	-0.71413694	0.00011389
-1.47252556	0.14026974	-0.47609129	0.00018043
-1.47252556	0.14026974	0.71413694	0.00011389
-1.47252556	0.16832369	-0.47609129	0.00047724
-1.47252556	0.19637764	-0.71413694	0.00014324
-1.47252556	0.19637764	-0.47609129	0.00017814
-1.47252556	0.19637764	0.71413694	0.00014324
-1.47252556	0.22443159	-0.47609129	0.00029962
-1.47252556	0.22443159	0.47609129	0.00011853
-1.47252556	0.25248554	-0.71413694	0.00015033
-1.47252556	0.25248554	0.71413694	0.00015033
-1.47252556	0.28053949	-0.47609129	0.00011631
-1.47252556	0.28053949	0.47609129	0.00029401
-1.47252556	0.30859344	-0.71413694	0.00013834
-1.47252556	0.30859344	0.47609129	0.00017152
-1.47252556	0.30859344	0.71413694	0.00013834
-1.47252556	0.33664738	0.47609129	0.00045065
-1.47252556	0.36470133	-0.71413694	0.00010625
-1.47252556	0.36470133	0.47609129	0.00016730
-1.47252556	0.36470133	0.71413694	0.00010625
-1.47252556	0.39275528	-0.71413694	0.00016026
-1.47252556	0.39275528	0.47609129	0.00027975
-1.47252556	0.39275528	0.71413694	0.00016027
-1.47252556	0.44886318	-0.71413694	0.00026250
-1.47252556	0.44886318	0.47609129	0.00010734
-1.47252556	0.44886318	0.71413694	0.00026250
-1.47252556	0.61718687	-0.47609129	0.00024254
-1.47252556	0.64524082	-0.47609129	0.00014002
-1.47252556	0.67329477	-0.47609129	0.00036435
-1.47252556	0.70134872	-0.47609129	0.00013384
-1.44307505	-0.81356451	-0.23804565	0.00034544
-1.44307505	-0.75745661	-0.47609129	0.00060084
-1.44307505	-0.75745661	-0.23804565	0.00018672
-1.44307505	-0.75745661	0.23804565	0.00018672
-1.44307505	-0.75745661	0.47609129	0.00060084
-1.44307505	-0.72940266	-0.47609129	0.00019325
-1.44307505	-0.72940266	0.47609129	0.00037107
-1.44307505	-0.70134872	-0.47609129	0.00122605
-1.44307505	-0.70134872	0.23804565	0.00038384
-1.44307505	-0.67329477	0.47609129	0.00048477
-1.44307505	-0.64524082	-0.47609129	0.00161176
-1.44307505	-0.64524082	0.23804565	0.00050881
-1.44307505	-0.61718687	0.47609129	0.00040699
-1.44307505	-0.58913292	-0.47609129	0.00178231
-1.44307505	-0.58913292	-0.23804565	0.00021593
-1.44307505	-0.58913292	0.23804565	0.00056508
-1.44307505	-0.58913292	0.47609129	0.00069009
-1.44307505	-0.56107897	0.47609129	0.00022097
-1.44307505	-0.53302502	-0.47609129	0.00175176
-1.44307505	-0.53302502	-0.23804565	0.00043981
-1.44307505	-0.53302502	0.23804565	0.00055538
-1.44307505	-0.53302502	0.47609129	0.00139560
-1.44307505	-0.50497108	-0.71413694	0.00211852
-1.44307505	-0.50497108	0.71413694	0.00211806
-1.44307505	-0.47691713	-0.47609129	0.00144775
-1.44307505	-0.47691713	-0.23804565	0.00057728
-1.44307505	-0.47691713	0.23804565	0.00045714
-1.44307505	-0.47691713	0.47609129	0.00181722
-1.44307505	-0.44886318	-0.71413694	0.00184542
-1.44307505	-0.44886318	-0.47609129	0.00023779
-1.44307505	-0.44886318	0.71413694	0.00184539
-1.44307505	-0.42080923	-0.71413694	0.00117558
-1.44307505	-0.42080923	-0.47609129	0.00077024
-1.44307505	-0.42080923	-0.23804565	0.00063445
-1.44307505	-0.42080923	0.23804565	0.00024243
-1.44307505	-0.42080923	0.47609129	0.00198932
-1.44307505	-0.42080923	0.71413694	0.00117559
-1.44307505	-0.39275528	-0.71413694	0.00097752
-1.44307505	-0.39275528	-0.47609129	0.00047111
-1.44307505	-0.39275528	0.71413694	0.00097751
-1.44307505	-0.36470133	-0.71413694	0.00232896
-1.44307505	-0.36470133	-0.23804565	0.00061670
-1.44307505	-0.36470133	0.47609129	0.00193453
-1.44307505	-0.36470133	0.71413694	0.00232896
-1.44307505	-0.33664738	-0.71413694	0.00034181
-1.44307505	-0.33664738	-0.47609129	0.00060362
-1.44307505	-0.33664738	0.71413694	0.00034180
-1.44307505	-0.30859344	-0.71413694	0.00296230
-1.44307505	-0.30859344	-0.23804565	0.00050173
-1.44307505	-0.30859344	0.47609129	0.00158109
-1.44307505	-0.30859344	0.71413694	0.00296231
-1.44307505	-0.28053949	-0.47609129	0.00049579
-1.44307505	-0.28053949	0.47609129	0.00025820
-1.44307505	-0.25248554	-0.71413694	0.00318831
-1.44307505	-0.25248554	-0.47609129	0.00083147
-1.44307505	-0.25248554	-0.23804565	0.00026286
-1.44307505	-0.25248554	0.23804565	0.00026286
-1.44307505	-0.25248554	0.47609129	0.00083146
-1.44307505	-0.25248554	0.71413694	0.00318832
-1.44307505	-0.22443159	-0.47609129	0.00026327
-1.44307505	-0.22443159	0.47609129	0.00050553
-1.44307505	-0.19637764	-0.71413694	0.00306996
-1.44307505	-0.19637764	-0.47609129	0.00164380
-1.44307505	-0.19637764	0.23804565	0.00052283
-1.44307505	-0.19637764	0.71413694	0.00306993
-1.44307505	-0.16832369	-0.71413694	0.00036058
-1.44307505	-0.16832369	0.47609129	0.00063939
-1.44307505	-0.16832369	0.71413694	0.00036058
-1.44307505	-0.14026974	-0.71413694	0.00250084
-1.44307505	-0.14026974	-0.47609129	0.00209057
-1.44307505	-0.14026974	0.23804565	0.00066948
-1.44307505	-0.14026974	0.71413694	0.00250081
-1.44307505	-0.11221579	-0.71413694	0.00106832
-1.44307505	-0.11221579	0.47609129	0.00051896
-1.44307505	-0.11221579	0.71413694	0.00106833
-1.44307505	-0.08416185	-0.71413694	0.00130749
-1.44307505	-0.08416185	-0.47609129	0.00223353
-1.44307505	-0.08416185	-0.23804565	0.00027404
-1.44307505	-0.08416185	0.23804565	0.00071716
-1.44307505	-0.08416185	0.47609129	0.00086480
-1.44307505	-0.08416185	0.71413694	0.00130747
-1.44307505	-0.05610790	-0.71413694	0.00208843
-1.44307505	-0.05610790	0.47609129	0.00027206
-1.44307505	-0.05610790	0.71413694	0.00208843
-1.44307505	-0.02805395	-0.47609129	0.00211838
-1.44307505	-0.02805395	-0.23804565	0.00053764
-1.44307505	-0.02805395	0.23804565	0.00067893
-1.44307505	-0.02805395	0.47609129	0.00168768
-1.44307505	0.00000000	-0.71413694	0.00248106
-1.44307505	0.00000000	0.71413694	0.00248053
-1.44307505	0.02805395	-0.47609129	0.00168768
-1.44307505	0.02805395	-0.23804565	0.00067893
-1.44307505	0.02805395	0.23804565	0.00053764
-1.44307505	0.02805395	0.47609129	0.00211837
-1.44307505	0.05610790	-0.71413694	0.00208844
-1.44307505	0.05610790	-0.47609129	0.00027206
-1.44307505	0.05610790	0.71413694	0.00208842
-1.44307505	0.08416185	-0.71413694	0.00130747
-1.44307505	0.08416185	-0.47609129	0.00086480
-1.44307505	0.08416185	-0.23804565	0.00071716
-1.44307505	0.08416185	0.23804565	0.00027404
-1.44307505	0.08416185	0.47609129	0.00223352
-1.44307505	0.08416185	0.71413694	0.00130748
-1.44307505	0.11221579	-0.71413694	0.00106832
-1.44307505	0.11221579	-0.47609129	0.00051897
-1.44307505	0.11221579	0.71413694	0.00106832
-1.44307505	0.14026974	-0.71413694	0.00250082
-1.44307505	0.14026974	-0.23804565	0.00066948
-1.44307505	0.14026974	0.47609129	0.00209057
-1.44307505	0.14026974	0.71413694	0.00250083
-1.44307505	0.16832369	-0.71413694	0.00036059
-1.44307505	0.16832369	-0.47609129	0.00063985
-1.44307505	0.16832369	0.71413694	0.00036058
-1.44307505	0.19637764	-0.71413694	0.00306994
-1.44307505	0.19637764	-0.23804565	0.00052283
-1.44307505	0.19637764	0.47609129	0.00164380
-1.44307505	0.19637764	0.71413694	0.00306995
-1.44307505	0.22443159	-0.47609129	0.00050553
-1.44307505	0.22443159	0.47609129	0.00026327
-1.44307505	0.25248554	-0.71413694	0.00318831
-1.44307505	0.25248554	-0.47609129	0.00083146
-1.44307505	0.25248554	-0.23804565	0.00026286
-1.44307505	0.25248554	0.23804565	0.00026286
-1.44307505	0.25248554	0.47609129	0.00083147
-1.44307505	0.25248554	0.71413694	0.00318832
-1.44307505	0.28053949	-0.47609129	0.00025820
-1.44307505	0.28053949	0.47609129	0.00049578
-1.44307505	0.30859344	-0.71413694	0.00296231
-1.44307505	0.30859344	-0.47609129	0.00158109
-1.44307505	0.30859344	0.23804565	0.00050173
-1.44307505	0.30859344	0.71413694	0.00296229
-1.44307505	0.33664738	-0.71413694	0.00034180
-1.44307505	0.33664738	0.47609129	0.00060319
-1.44307505	0.33664738	0.71413694	0.00034180
-1.44307505	0.36470133	-0.71413694	0.00232898
-1.44307505	0.36470133	-0.47609129	0.00193453
-1.44307505	0.36470133	0.23804565	0.00061670
-1.44307505	0.36470133	0.71413694	0.00232895
-1.44307505	0.39275528	-0.71413694	0.00097751
-1.44307505	0.39275528	0.47609129	0.00047111
-1.44307505	0.39275528	0.71413694	0.00097752
-1.44307505	0.42080923	-0.71413694	0.00117559
-1.44307505	0.42080923	-0.47609129	0.00198932
-1.44307505	0.42080923	-0.23804565	0.00024244
-1.44307505	0.42080923	0.23804565	0.00063445
-1.44307505	0.42080923	0.47609129	0.00077024
-1.44307505	0.42080923	0.71413694	0.00117558
-1.44307505	0.44886318	-0.71413694	0.00184540
-1.44307505	0.44886318	0.47609129	0.00023779
-1.44307505	0.44886318	0.71413694	0.00184540
-1.44307505	0.47691713	-0.47609129	0.00181722
-1.44307505	0.47691713	-0.23804565	0.00045714
-1.44307505	0.47691713	0.23804565	0.00057728
-1.44307505	0.47691713	0.47609129	0.00144775
-1.44307505	0.50497108	-0.71413694	0.00211852
-1.44307505	0.50497108	0.71413694	0.00211806
-1.44307505	0.53302502	-0.47609129	0.00139560
-1.44307505	0.53302502	-0.23804565	0.00055539
-1.44307505	0.53302502	0.23804565	0.00043981
-1.44307505	0.53302502	0.47609129	0.00175176
-1.44307505	0.56107897	-0.47609129	0.00022097
-1.44307505	0.58913292	-0.47609129	0.00069009
-1.44307505	0.58913292	-0.23804565	0.00056508
-1.44307505	0.58913292	0.23804565	0.00021593
-1.44307505	0.58913292	0.47609129	0.00178230
-1.44307505	0.61718687	-0.47609129	0.00040699
-1.44307505	0.64524082	-0.23804565	0.00050881
-1.44307505	0.64524082	0.47609129	0.00161175
-1.44307505	0.67329477	-0.47609129	0.00048512
-1.44307505	0.70134872	-0.23804565	0.00038384
-1.44307505	0.70134872	0.47609129	0.00122605
-1.44307505	0.72940266	-0.47609129	0.00037107
-1.44307505	0.72940266	0.47609129	0.00019325
-1.44307505	0.75745661	-0.47609129	0.00060084
-1.44307505	0.75745661	-0.23804565	0.00018672
-1.44307505	0.75745661	0.23804565	0.00018672
-1.44307505	0.75745661	0.47609129	0.00060084
-1.44307505	0.81356451	0.23804565	0.00034544
-1.41362454	-0.67329477	0.47609129	0.00014122
-1.41362454	-0.61718687	-0.71413694	0.00034712
-1.41362454	-0.61718687	0.71413694	0.00034711
-1.41362454	-0.58913292	-0.71413694	0.00022362
-1.41362454	-0.58913292	0.71413694	0.00022361
-1.41362454	-0.56107897	-0.71413694	0.00093195
-1.41362454	-0.56107897	0.71413694	0.00093195
-1.41362454	-0.53302502	-0.71413694	0.00043825
-1.41362454	-0.53302502	0.71413694	0.00043823
-1.41362454	-0.50497108	-0.71413694	0.00137724
-1.41362454	-0.50497108	0.71413694	0.00137676
-1.41362454	-0.47691713	-0.71413694	0.00045371
-1.41362454	-0.47691713	0.71413694	0.00045368
-1.41362454	-0.44886318	-0.71413694	0.00099880
-1.41362454	-0.44886318	0.71413694	0.00099881
-1.41362454	-0.42080923	-0.71413694	0.00024809
-1.41362454	-0.42080923	0.71413694	0.00024808
-1.41362454	-0.39275528	-0.71413694	0.00039858
-1.41362454	-0.39275528	0.71413694	0.00039858
-1.41362454	-0.36470133	-0.71413694	0.00033858
-1.41362454	-0.36470133	0.71413694	0.00033857
-1.41362454	-0.33664738	-0.71413694	0.00010862
-1.41362454	-0.33664738	-0.47609129	0.00017669
-1.41362454	-0.33664738	0.71413694	0.00010862
-1.41362454	-0.30859344	-0.71413694	0.00036943
-1.41362454	-0.30859344	0.71413694	0.00036942
-1.41362454	-0.25248554	-0.71413694	0.00037493
-1.41362454	-0.25248554	0.71413694	0.00037493
-1.41362454	-0.19637764	-0.71413694	0.00038319
-1.41362454	-0.19637764	0.71413694	0.00038318
-1.41362454	-0.16832369	-0.71413694	0.00011473
-1.41362454	-0.16832369	0.47609129	0.00018761
-1.41362454	-0.16832369	0.71413694	0.00011474
-1.41362454	-0.14026974	-0.71413694	0.00036421
-1.41362454	-0.14026974	0.71413694	0.00036420
-1.41362454	-0.11221579	-0.71413694	0.00043656
-1.41362454	-0.11221579	0.47609129	0.00010220
-1.41362454	-0.11221579	0.71413694	0.00043655
-1.41362454	-0.08416185	-0.71413694	0.00027664
-1.41362454	-0.08416185	0.71413694	0.00027663
-1.41362454	-0.05610790	-0.71413694	0.00113376
-1.41362454	-0.05610790	0.71413694	0.00113376
-1.41362454	-0.02805395	-0.71413694	0.00052416
-1.41362454	-0.02805395	0.71413694	0.00052414
-1.41362454	0.00000000	-0.71413694	0.00161910
-1.41362454	0.00000000	0.71413694	0.00161854
-1.41362454	0.02805395	-0.71413694	0.00052417
-1.41362454	0.02805395	0.71413694	0.00052414
-1.41362454	0.05610790	-0.71413694	0.00113376
-1.41362454	0.05610790	0.71413694	0.00113376
-1.41362454	0.08416185	-0.71413694	0.00027664
-1.41362454	0.08416185	0.71413694	0.00027663
-1.41362454	0.11221579	-0.71413694	0.00043656
-1.41362454	0.11221579	-0.47609129	0.00010220
-1.41362454	0.11221579	0.71413694	0.00043656
-1.41362454	0.14026974	-0.71413694	0.00036421
-1.41362454	0.14026974	0.71413694	0.00036420
-1.41362454	0.16832369	-0.71413694	0.00011473
-1.41362454	0.16832369	-0.47609129	0.00018760
-1.41362454	0.16832369	0.71413694	0.00011474
-1.41362454	0.19637764	-0.71413694	0.00038319
-1.41362454	0.19637764	0.71413694	0.00038318
-1.41362454	0.25248554	-0.71413694	0.00037493
-1.41362454	0.25248554	0.71413694	0.00037493
-1.41362454	0.30859344	-0.71413694	0.00036943
-1.41362454	0.30859344	0.71413694	0.00036942
-1.41362454	0.33664738	-0.71413694	0.00010862
-1.41362454	0.33664738	0.47609129	0.00017670
-1.41362454	0.33664738	0.71413694	0.00010862
-1.41362454	0.36470133	-0.71413694	0.00033859
-1.41362454	0.36470133	0.71413694	0.00033857
-1.41362454	0.39275528	-0.71413694	0.00039858
-1.41362454	0.39275528	0.71413694	0.00039858
-1.41362454	0.42080923	-0.71413694	0.00024809
-1.41362454	0.42080923	0.71413694	0.00024808
-1.41362454	0.44886318	-0.71413694	0.00099881
-1.41362454	0.44886318	0.71413694	0.00099881
-1.41362454	0.47691713	-0.71413694	0.00045371
-1.41362454	0.47691713	0.71413694	0.00045368
-1.41362454	0.50497108	-0.71413694	0.00137724
-1.41362454	0.50497108	0.71413694	0.00137676
-1.41362454	0.53302502	-0.71413694	0.00043825
-1.41362454	0.53302502	0.71413694	0.00043822