Position data Generated by SPaMD
4	atoms
1	atom types
0.000000		3.523600	xlo xhi
0.000000		3.523600	ylo yhi
0.000000		3.523600	zlo zhi
0.000000		0.000000	0.000000	xy xz yz

Atoms

1	1	0.000000	0.000000	0.000000
2	1	0.000000	1.761800	1.761800
3	1	1.761800	0.000000	1.761800
4	1	1.761800	1.761800	0.000000
