Position data Generated by SPaMD
2000	atoms
2	atom types
0.000000		28.571000	xlo xhi
0.000000		28.571000	ylo yhi
0.000000		28.571000	zlo zhi

Atoms

1	1	0.000000	0.000000	0.000000
2	1	1.428550	1.428550	1.428550
3	2	0.000000	0.000000	2.857100
4	2	1.428550	1.428550	4.285650
5	1	0.000000	0.000000	5.714200
6	1	1.428550	1.428550	7.142750
7	1	0.000000	0.000000	8.571300
8	2	1.428550	1.428550	9.999850
9	1	0.000000	0.000000	11.428400
10	2	1.428550	1.428550	12.856950
11	1	0.000000	0.000000	14.285500
12	1	1.428550	1.428550	15.714050
13	1	0.000000	0.000000	17.142600
14	1	1.428550	1.428550	18.571150
15	2	0.000000	0.000000	19.999700
16	1	1.428550	1.428550	21.428250
17	1	0.000000	0.000000	22.856800
18	2	1.428550	1.428550	24.285350
19	2	0.000000	0.000000	25.713900
20	1	1.428550	1.428550	27.142450
21	1	0.000000	2.857100	0.000000
22	1	1.428550	4.285650	1.428550
23	2	0.000000	2.857100	2.857100
24	2	1.428550	4.285650	4.285650
25	2	0.000000	2.857100	5.714200
26	2	1.428550	4.285650	7.142750
27	1	0.000000	2.857100	8.571300
28	2	1.428550	4.285650	9.999850
29	2	0.000000	2.857100	11.428400
30	2	1.428550	4.285650	12.856950
31	2	0.000000	2.857100	14.285500
32	1	1.428550	4.285650	15.714050
33	2	0.000000	2.857100	17.142600
34	2	1.428550	4.285650	18.571150
35	1	0.000000	2.857100	19.999700
36	2	1.428550	4.285650	21.428250
37	2	0.000000	2.857100	22.856800
38	1	1.428550	4.285650	24.285350
39	2	0.000000	2.857100	25.713900
40	1	1.428550	4.285650	27.142450
41	1	0.000000	5.714200	0.000000
42	2	1.428550	7.142750	1.428550
43	1	0.000000	5.714200	2.857100
44	1	1.428550	7.142750	4.285650
45	1	0.000000	5.714200	5.714200
46	1	1.428550	7.142750	7.142750
47	1	0.000000	5.714200	8.571300
48	2	1.428550	7.142750	9.999850
49	1	0.000000	5.714200	11.428400
50	1	1.428550	7.142750	12.856950
51	2	0.000000	5.714200	14.285500
52	1	1.428550	7.142750	15.714050
53	2	0.000000	5.714200	17.142600
54	1	1.428550	7.142750	18.571150
55	1	0.000000	5.714200	19.999700
56	1	1.428550	7.142750	21.428250
57	1	0.000000	5.714200	22.856800
58	2	1.428550	7.142750	24.285350
59	1	0.000000	5.714200	25.713900
60	1	1.428550	7.142750	27.142450
61	2	0.000000	8.571300	0.000000
62	2	1.428550	9.999850	1.428550
63	2	0.000000	8.571300	2.857100
64	1	1.428550	9.999850	4.285650
65	1	0.000000	8.571300	5.714200
66	1	1.428550	9.999850	7.142750
67	2	0.000000	8.571300	8.571300
68	1	1.428550	9.999850	9.999850
69	2	0.000000	8.571300	11.428400
70	2	1.428550	9.999850	12.856950
71	2	0.000000	8.571300	14.285500
72	2	1.428550	9.999850	15.714050
73	2	0.000000	8.571300	17.142600
74	2	1.428550	9.999850	18.571150
75	2	0.000000	8.571300	19.999700
76	1	1.428550	9.999850	21.428250
77	2	0.000000	8.571300	22.856800
78	1	1.428550	9.999850	24.285350
79	1	0.000000	8.571300	25.713900
80	2	1.428550	9.999850	27.142450
81	1	0.000000	11.428400	0.000000
82	1	1.428550	12.856950	1.428550
83	2	0.000000	11.428400	2.857100
84	1	1.428550	12.856950	4.285650
85	2	0.000000	11.428400	5.714200
86	2	1.428550	12.856950	7.142750
87	2	0.000000	11.428400	8.571300
88	2	1.428550	12.856950	9.999850
89	2	0.000000	11.428400	11.428400
90	1	1.428550	12.856950	12.856950
91	1	0.000000	11.428400	14.285500
92	2	1.428550	12.856950	15.714050
93	1	0.000000	11.428400	17.142600
94	2	1.428550	12.856950	18.571150
95	2	0.000000	11.428400	19.999700
96	2	1.428550	12.856950	21.428250
97	2	0.000000	11.428400	22.856800
98	1	1.428550	12.856950	24.285350
99	1	0.000000	11.428400	25.713900
100	1	1.428550	12.856950	27.142450
101	2	0.000000	14.285500	0.000000
102	2	1.428550	15.714050	1.428550
103	1	0.000000	14.285500	2.857100
104	2	1.428550	15.714050	4.285650
105	1	0.000000	14.285500	5.714200
106	1	1.428550	15.714050	7.142750
107	1	0.000000	14.285500	8.571300
108	2	1.428550	15.714050	9.999850
109	2	0.000000	14.285500	11.428400
110	2	1.428550	15.714050	12.856950
111	2	0.000000	14.285500	14.285500
112	1	1.428550	15.714050	15.714050
113	1	0.000000	14.285500	17.142600
114	1	1.428550	15.714050	18.571150
115	1	0.000000	14.285500	19.999700
116	2	1.428550	15.714050	21.428250
117	2	0.000000	14.285500	22.856800
118	2	1.428550	15.714050	24.285350
119	2	0.000000	14.285500	25.713900
120	2	1.428550	15.714050	27.142450
121	2	0.000000	17.142600	0.000000
122	2	1.428550	18.571150	1.428550
123	1	0.000000	17.142600	2.857100
124	2	1.428550	18.571150	4.285650
125	1	0.000000	17.142600	5.714200
126	1	1.428550	18.571150	7.142750
127	2	0.000000	17.142600	8.571300
128	1	1.428550	18.571150	9.999850
129	1	0.000000	17.142600	11.428400
130	1	1.428550	18.571150	12.856950
131	2	0.000000	17.142600	14.285500
132	1	1.428550	18.571150	15.714050
133	2	0.000000	17.142600	17.142600
134	1	1.428550	18.571150	18.571150
135	1	0.000000	17.142600	19.999700
136	2	1.428550	18.571150	21.428250
137	2	0.000000	17.142600	22.856800
138	1	1.428550	18.571150	24.285350
139	2	0.000000	17.142600	25.713900
140	1	1.428550	18.571150	27.142450
141	2	0.000000	19.999700	0.000000
142	2	1.428550	21.428250	1.428550
143	1	0.000000	19.999700	2.857100
144	2	1.428550	21.428250	4.285650
145	2	0.000000	19.999700	5.714200
146	1	1.428550	21.428250	7.142750
147	1	0.000000	19.999700	8.571300
148	2	1.428550	21.428250	9.999850
149	1	0.000000	19.999700	11.428400
150	1	1.428550	21.428250	12.856950
151	1	0.000000	19.999700	14.285500
152	2	1.428550	21.428250	15.714050
153	1	0.000000	19.999700	17.142600
154	1	1.428550	21.428250	18.571150
155	2	0.000000	19.999700	19.999700
156	2	1.428550	21.428250	21.428250
157	2	0.000000	19.999700	22.856800
158	2	1.428550	21.428250	24.285350
159	2	0.000000	19.999700	25.713900
160	2	1.428550	21.428250	27.142450
161	1	0.000000	22.856800	0.000000
162	2	1.428550	24.285350	1.428550
163	1	0.000000	22.856800	2.857100
164	2	1.428550	24.285350	4.285650
165	2	0.000000	22.856800	5.714200
166	2	1.428550	24.285350	7.142750
167	2	0.000000	22.856800	8.571300
168	1	1.428550	24.285350	9.999850
169	2	0.000000	22.856800	11.428400
170	2	1.428550	24.285350	12.856950
171	1	0.000000	22.856800	14.285500
172	2	1.428550	24.285350	15.714050
173	2	0.000000	22.856800	17.142600
174	1	1.428550	24.285350	18.571150
175	2	0.000000	22.856800	19.999700
176	2	1.428550	24.285350	21.428250
177	2	0.000000	22.856800	22.856800
178	2	1.428550	24.285350	24.285350
179	2	0.000000	22.856800	25.713900
180	1	1.428550	24.285350	27.142450
181	2	0.000000	25.713900	0.000000
182	1	1.428550	27.142450	1.428550
183	1	0.000000	25.713900	2.857100
184	2	1.428550	27.142450	4.285650
185	2	0.000000	25.713900	5.714200
186	1	1.428550	27.142450	7.142750
187	2	0.000000	25.713900	8.571300
188	2	1.428550	27.142450	9.999850
189	1	0.000000	25.713900	11.428400
190	1	1.428550	27.142450	12.856950
191	2	0.000000	25.713900	14.285500
192	2	1.428550	27.142450	15.714050
193	2	0.000000	25.713900	17.142600
194	2	1.428550	27.142450	18.571150
195	2	0.000000	25.713900	19.999700
196	2	1.428550	27.142450	21.428250
197	1	0.000000	25.713900	22.856800
198	2	1.428550	27.142450	24.285350
199	2	0.000000	25.713900	25.713900
200	2	1.428550	27.142450	27.142450
201	2	2.857100	0.000000	0.000000
202	2	4.285650	1.428550	1.428550
203	1	2.857100	0.000000	2.857100
204	1	4.285650	1.428550	4.285650
205	1	2.857100	0.000000	5.714200
206	1	4.285650	1.428550	7.142750
207	2	2.857100	0.000000	8.571300
208	1	4.285650	1.428550	9.999850
209	1	2.857100	0.000000	11.428400
210	1	4.285650	1.428550	12.856950
211	1	2.857100	0.000000	14.285500
212	1	4.285650	1.428550	15.714050
213	2	2.857100	0.000000	17.142600
214	1	4.285650	1.428550	18.571150
215	2	2.857100	0.000000	19.999700
216	1	4.285650	1.428550	21.428250
217	1	2.857100	0.000000	22.856800
218	1	4.285650	1.428550	24.285350
219	2	2.857100	0.000000	25.713900
220	2	4.285650	1.428550	27.142450
221	1	2.857100	2.857100	0.000000
222	2	4.285650	4.285650	1.428550
223	1	2.857100	2.857100	2.857100
224	1	4.285650	4.285650	4.285650
225	2	2.857100	2.857100	5.714200
226	1	4.285650	4.285650	7.142750
227	2	2.857100	2.857100	8.571300
228	1	4.285650	4.285650	9.999850
229	2	2.857100	2.857100	11.428400
230	2	4.285650	4.285650	12.856950
231	2	2.857100	2.857100	14.285500
232	2	4.285650	4.285650	15.714050
233	1	2.857100	2.857100	17.142600
234	2	4.285650	4.285650	18.571150
235	1	2.857100	2.857100	19.999700
236	1	4.285650	4.285650	21.428250
237	2	2.857100	2.857100	22.856800
238	2	4.285650	4.285650	24.285350
239	1	2.857100	2.857100	25.713900
240	2	4.285650	4.285650	27.142450
241	1	2.857100	5.714200	0.000000
242	1	4.285650	7.142750	1.428550
243	1	2.857100	5.714200	2.857100
244	2	4.285650	7.142750	4.285650
245	2	2.857100	5.714200	5.714200
246	1	4.285650	7.142750	7.142750
247	1	2.857100	5.714200	8.571300
248	2	4.285650	7.142750	9.999850
249	2	2.857100	5.714200	11.428400
250	2	4.285650	7.142750	12.856950
251	2	2.857100	5.714200	14.285500
252	2	4.285650	7.142750	15.714050
253	2	2.857100	5.714200	17.142600
254	2	4.285650	7.142750	18.571150
255	1	2.857100	5.714200	19.999700
256	1	4.285650	7.142750	21.428250
257	2	2.857100	5.714200	22.856800
258	2	4.285650	7.142750	24.285350
259	2	2.857100	5.714200	25.713900
260	1	4.285650	7.142750	27.142450
261	1	2.857100	8.571300	0.000000
262	2	4.285650	9.999850	1.428550
263	2	2.857100	8.571300	2.857100
264	2	4.285650	9.999850	4.285650
265	2	2.857100	8.571300	5.714200
266	1	4.285650	9.999850	7.142750
267	2	2.857100	8.571300	8.571300
268	2	4.285650	9.999850	9.999850
269	2	2.857100	8.571300	11.428400
270	2	4.285650	9.999850	12.856950
271	1	2.857100	8.571300	14.285500
272	2	4.285650	9.999850	15.714050
273	2	2.857100	8.571300	17.142600
274	1	4.285650	9.999850	18.571150
275	2	2.857100	8.571300	19.999700
276	1	4.285650	9.999850	21.428250
277	2	2.857100	8.571300	22.856800
278	1	4.285650	9.999850	24.285350
279	1	2.857100	8.571300	25.713900
280	2	4.285650	9.999850	27.142450
281	1	2.857100	11.428400	0.000000
282	2	4.285650	12.856950	1.428550
283	2	2.857100	11.428400	2.857100
284	1	4.285650	12.856950	4.285650
285	2	2.857100	11.428400	5.714200
286	1	4.285650	12.856950	7.142750
287	1	2.857100	11.428400	8.571300
288	1	4.285650	12.856950	9.999850
289	2	2.857100	11.428400	11.428400
290	1	4.285650	12.856950	12.856950
291	1	2.857100	11.428400	14.285500
292	1	4.285650	12.856950	15.714050
293	1	2.857100	11.428400	17.142600
294	2	4.285650	12.856950	18.571150
295	2	2.857100	11.428400	19.999700
296	2	4.285650	12.856950	21.428250
297	2	2.857100	11.428400	22.856800
298	2	4.285650	12.856950	24.285350
299	1	2.857100	11.428400	25.713900
300	2	4.285650	12.856950	27.142450
301	2	2.857100	14.285500	0.000000
302	2	4.285650	15.714050	1.428550
303	2	2.857100	14.285500	2.857100
304	1	4.285650	15.714050	4.285650
305	2	2.857100	14.285500	5.714200
306	1	4.285650	15.714050	7.142750
307	1	2.857100	14.285500	8.571300
308	2	4.285650	15.714050	9.999850
309	2	2.857100	14.285500	11.428400
310	2	4.285650	15.714050	12.856950
311	1	2.857100	14.285500	14.285500
312	2	4.285650	15.714050	15.714050
313	1	2.857100	14.285500	17.142600
314	2	4.285650	15.714050	18.571150
315	1	2.857100	14.285500	19.999700
316	2	4.285650	15.714050	21.428250
317	2	2.857100	14.285500	22.856800
318	2	4.285650	15.714050	24.285350
319	1	2.857100	14.285500	25.713900
320	1	4.285650	15.714050	27.142450
321	1	2.857100	17.142600	0.000000
322	2	4.285650	18.571150	1.428550
323	1	2.857100	17.142600	2.857100
324	2	4.285650	18.571150	4.285650
325	2	2.857100	17.142600	5.714200
326	2	4.285650	18.571150	7.142750
327	2	2.857100	17.142600	8.571300
328	2	4.285650	18.571150	9.999850
329	2	2.857100	17.142600	11.428400
330	1	4.285650	18.571150	12.856950
331	2	2.857100	17.142600	14.285500
332	1	4.285650	18.571150	15.714050
333	2	2.857100	17.142600	17.142600
334	2	4.285650	18.571150	18.571150
335	2	2.857100	17.142600	19.999700
336	1	4.285650	18.571150	21.428250
337	1	2.857100	17.142600	22.856800
338	1	4.285650	18.571150	24.285350
339	2	2.857100	17.142600	25.713900
340	1	4.285650	18.571150	27.142450
341	1	2.857100	19.999700	0.000000
342	2	4.285650	21.428250	1.428550
343	2	2.857100	19.999700	2.857100
344	2	4.285650	21.428250	4.285650
345	1	2.857100	19.999700	5.714200
346	1	4.285650	21.428250	7.142750
347	1	2.857100	19.999700	8.571300
348	2	4.285650	21.428250	9.999850
349	1	2.857100	19.999700	11.428400
350	1	4.285650	21.428250	12.856950
351	1	2.857100	19.999700	14.285500
352	1	4.285650	21.428250	15.714050
353	1	2.857100	19.999700	17.142600
354	1	4.285650	21.428250	18.571150
355	1	2.857100	19.999700	19.999700
356	1	4.285650	21.428250	21.428250
357	2	2.857100	19.999700	22.856800
358	1	4.285650	21.428250	24.285350
359	1	2.857100	19.999700	25.713900
360	2	4.285650	21.428250	27.142450
361	2	2.857100	22.856800	0.000000
362	1	4.285650	24.285350	1.428550
363	2	2.857100	22.856800	2.857100
364	1	4.285650	24.285350	4.285650
365	1	2.857100	22.856800	5.714200
366	1	4.285650	24.285350	7.142750
367	2	2.857100	22.856800	8.571300
368	2	4.285650	24.285350	9.999850
369	2	2.857100	22.856800	11.428400
370	1	4.285650	24.285350	12.856950
371	2	2.857100	22.856800	14.285500
372	2	4.285650	24.285350	15.714050
373	1	2.857100	22.856800	17.142600
374	1	4.285650	24.285350	18.571150
375	1	2.857100	22.856800	19.999700
376	2	4.285650	24.285350	21.428250
377	2	2.857100	22.856800	22.856800
378	2	4.285650	24.285350	24.285350
379	2	2.857100	22.856800	25.713900
380	2	4.285650	24.285350	27.142450
381	2	2.857100	25.713900	0.000000
382	1	4.285650	27.142450	1.428550
383	1	2.857100	25.713900	2.857100
384	2	4.285650	27.142450	4.285650
385	2	2.857100	25.713900	5.714200
386	2	4.285650	27.142450	7.142750
387	2	2.857100	25.713900	8.571300
388	1	4.285650	27.142450	9.999850
389	2	2.857100	25.713900	11.428400
390	2	4.285650	27.142450	12.856950
391	2	2.857100	25.713900	14.285500
392	1	4.285650	27.142450	15.714050
393	1	2.857100	25.713900	17.142600
394	2	4.285650	27.142450	18.571150
395	2	2.857100	25.713900	19.999700
396	1	4.285650	27.142450	21.428250
397	2	2.857100	25.713900	22.856800
398	1	4.285650	27.142450	24.285350
399	2	2.857100	25.713900	25.713900
400	1	4.285650	27.142450	27.142450
401	1	5.714200	0.000000	0.000000
402	2	7.142750	1.428550	1.428550
403	2	5.714200	0.000000	2.857100
404	2	7.142750	1.428550	4.285650
405	1	5.714200	0.000000	5.714200
406	2	7.142750	1.428550	7.142750
407	1	5.714200	0.000000	8.571300
408	2	7.142750	1.428550	9.999850
409	2	5.714200	0.000000	11.428400
410	1	7.142750	1.428550	12.856950
411	2	5.714200	0.000000	14.285500
412	2	7.142750	1.428550	15.714050
413	1	5.714200	0.000000	17.142600
414	1	7.142750	1.428550	18.571150
415	2	5.714200	0.000000	19.999700
416	1	7.142750	1.428550	21.428250
417	1	5.714200	0.000000	22.856800
418	1	7.142750	1.428550	24.285350
419	1	5.714200	0.000000	25.713900
420	1	7.142750	1.428550	27.142450
421	1	5.714200	2.857100	0.000000
422	2	7.142750	4.285650	1.428550
423	1	5.714200	2.857100	2.857100
424	2	7.142750	4.285650	4.285650
425	1	5.714200	2.857100	5.714200
426	1	7.142750	4.285650	7.142750
427	1	5.714200	2.857100	8.571300
428	2	7.142750	4.285650	9.999850
429	1	5.714200	2.857100	11.428400
430	2	7.142750	4.285650	12.856950
431	2	5.714200	2.857100	14.285500
432	1	7.142750	4.285650	15.714050
433	2	5.714200	2.857100	17.142600
434	2	7.142750	4.285650	18.571150
435	2	5.714200	2.857100	19.999700
436	2	7.142750	4.285650	21.428250
437	1	5.714200	2.857100	22.856800
438	1	7.142750	4.285650	24.285350
439	2	5.714200	2.857100	25.713900
440	1	7.142750	4.285650	27.142450
441	1	5.714200	5.714200	0.000000
442	1	7.142750	7.142750	1.428550
443	2	5.714200	5.714200	2.857100
444	1	7.142750	7.142750	4.285650
445	1	5.714200	5.714200	5.714200
446	1	7.142750	7.142750	7.142750
447	1	5.714200	5.714200	8.571300
448	1	7.142750	7.142750	9.999850
449	2	5.714200	5.714200	11.428400
450	1	7.142750	7.142750	12.856950
451	2	5.714200	5.714200	14.285500
452	1	7.142750	7.142750	15.714050
453	1	5.714200	5.714200	17.142600
454	2	7.142750	7.142750	18.571150
455	2	5.714200	5.714200	19.999700
456	2	7.142750	7.142750	21.428250
457	2	5.714200	5.714200	22.856800
458	1	7.142750	7.142750	24.285350
459	2	5.714200	5.714200	25.713900
460	1	7.142750	7.142750	27.142450
461	2	5.714200	8.571300	0.000000
462	1	7.142750	9.999850	1.428550
463	2	5.714200	8.571300	2.857100
464	1	7.142750	9.999850	4.285650
465	1	5.714200	8.571300	5.714200
466	2	7.142750	9.999850	7.142750
467	2	5.714200	8.571300	8.571300
468	2	7.142750	9.999850	9.999850
469	2	5.714200	8.571300	11.428400
470	1	7.142750	9.999850	12.856950
471	2	5.714200	8.571300	14.285500
472	2	7.142750	9.999850	15.714050
473	1	5.714200	8.571300	17.142600
474	2	7.142750	9.999850	18.571150
475	2	5.714200	8.571300	19.999700
476	1	7.142750	9.999850	21.428250
477	2	5.714200	8.571300	22.856800
478	2	7.142750	9.999850	24.285350
479	2	5.714200	8.571300	25.713900
480	1	7.142750	9.999850	27.142450
481	2	5.714200	11.428400	0.000000
482	1	7.142750	12.856950	1.428550
483	1	5.714200	11.428400	2.857100
484	1	7.142750	12.856950	4.285650
485	2	5.714200	11.428400	5.714200
486	1	7.142750	12.856950	7.142750
487	2	5.714200	11.428400	8.571300
488	1	7.142750	12.856950	9.999850
489	2	5.714200	11.428400	11.428400
490	1	7.142750	12.856950	12.856950
491	1	5.714200	11.428400	14.285500
492	2	7.142750	12.856950	15.714050
493	1	5.714200	11.428400	17.142600
494	1	7.142750	12.856950	18.571150
495	2	5.714200	11.428400	19.999700
496	2	7.142750	12.856950	21.428250
497	1	5.714200	11.428400	22.856800
498	1	7.142750	12.856950	24.285350
499	2	5.714200	11.428400	25.713900
500	2	7.142750	12.856950	27.142450
501	2	5.714200	14.285500	0.000000
502	2	7.142750	15.714050	1.428550
503	2	5.714200	14.285500	2.857100
504	1	7.142750	15.714050	4.285650
505	1	5.714200	14.285500	5.714200
506	2	7.142750	15.714050	7.142750
507	1	5.714200	14.285500	8.571300
508	1	7.142750	15.714050	9.999850
509	1	5.714200	14.285500	11.428400
510	1	7.142750	15.714050	12.856950
511	2	5.714200	14.285500	14.285500
512	1	7.142750	15.714050	15.714050
513	2	5.714200	14.285500	17.142600
514	2	7.142750	15.714050	18.571150
515	2	5.714200	14.285500	19.999700
516	1	7.142750	15.714050	21.428250
517	2	5.714200	14.285500	22.856800
518	1	7.142750	15.714050	24.285350
519	1	5.714200	14.285500	25.713900
520	2	7.142750	15.714050	27.142450
521	1	5.714200	17.142600	0.000000
522	2	7.142750	18.571150	1.428550
523	2	5.714200	17.142600	2.857100
524	1	7.142750	18.571150	4.285650
525	2	5.714200	17.142600	5.714200
526	1	7.142750	18.571150	7.142750
527	2	5.714200	17.142600	8.571300
528	1	7.142750	18.571150	9.999850
529	2	5.714200	17.142600	11.428400
530	1	7.142750	18.571150	12.856950
531	2	5.714200	17.142600	14.285500
532	1	7.142750	18.571150	15.714050
533	2	5.714200	17.142600	17.142600
534	2	7.142750	18.571150	18.571150
535	1	5.714200	17.142600	19.999700
536	1	7.142750	18.571150	21.428250
537	2	5.714200	17.142600	22.856800
538	2	7.142750	18.571150	24.285350
539	1	5.714200	17.142600	25.713900
540	2	7.142750	18.571150	27.142450
541	1	5.714200	19.999700	0.000000
542	1	7.142750	21.428250	1.428550
543	1	5.714200	19.999700	2.857100
544	2	7.142750	21.428250	4.285650
545	1	5.714200	19.999700	5.714200
546	1	7.142750	21.428250	7.142750
547	1	5.714200	19.999700	8.571300
548	1	7.142750	21.428250	9.999850
549	2	5.714200	19.999700	11.428400
550	2	7.142750	21.428250	12.856950
551	2	5.714200	19.999700	14.285500
552	1	7.142750	21.428250	15.714050
553	2	5.714200	19.999700	17.142600
554	2	7.142750	21.428250	18.571150
555	1	5.714200	19.999700	19.999700
556	2	7.142750	21.428250	21.428250
557	1	5.714200	19.999700	22.856800
558	2	7.142750	21.428250	24.285350
559	2	5.714200	19.999700	25.713900
560	1	7.142750	21.428250	27.142450
561	2	5.714200	22.856800	0.000000
562	2	7.142750	24.285350	1.428550
563	1	5.714200	22.856800	2.857100
564	2	7.142750	24.285350	4.285650
565	1	5.714200	22.856800	5.714200
566	2	7.142750	24.285350	7.142750
567	2	5.714200	22.856800	8.571300
568	1	7.142750	24.285350	9.999850
569	2	5.714200	22.856800	11.428400
570	2	7.142750	24.285350	12.856950
571	2	5.714200	22.856800	14.285500
572	2	7.142750	24.285350	15.714050
573	2	5.714200	22.856800	17.142600
574	1	7.142750	24.285350	18.571150
575	1	5.714200	22.856800	19.999700
576	2	7.142750	24.285350	21.428250
577	2	5.714200	22.856800	22.856800
578	2	7.142750	24.285350	24.285350
579	2	5.714200	22.856800	25.713900
580	1	7.142750	24.285350	27.142450
581	2	5.714200	25.713900	0.000000
582	1	7.142750	27.142450	1.428550
583	2	5.714200	25.713900	2.857100
584	2	7.142750	27.142450	4.285650
585	2	5.714200	25.713900	5.714200
586	2	7.142750	27.142450	7.142750
587	1	5.714200	25.713900	8.571300
588	1	7.142750	27.142450	9.999850
589	1	5.714200	25.713900	11.428400
590	2	7.142750	27.142450	12.856950
591	1	5.714200	25.713900	14.285500
592	1	7.142750	27.142450	15.714050
593	1	5.714200	25.713900	17.142600
594	2	7.142750	27.142450	18.571150
595	2	5.714200	25.713900	19.999700
596	2	7.142750	27.142450	21.428250
597	1	5.714200	25.713900	22.856800
598	2	7.142750	27.142450	24.285350
599	2	5.714200	25.713900	25.713900
600	1	7.142750	27.142450	27.142450
601	2	8.571300	0.000000	0.000000
602	2	9.999850	1.428550	1.428550
603	1	8.571300	0.000000	2.857100
604	2	9.999850	1.428550	4.285650
605	1	8.571300	0.000000	5.714200
606	1	9.999850	1.428550	7.142750
607	2	8.571300	0.000000	8.571300
608	1	9.999850	1.428550	9.999850
609	2	8.571300	0.000000	11.428400
610	1	9.999850	1.428550	12.856950
611	1	8.571300	0.000000	14.285500
612	2	9.999850	1.428550	15.714050
613	1	8.571300	0.000000	17.142600
614	2	9.999850	1.428550	18.571150
615	2	8.571300	0.000000	19.999700
616	2	9.999850	1.428550	21.428250
617	2	8.571300	0.000000	22.856800
618	2	9.999850	1.428550	24.285350
619	1	8.571300	0.000000	25.713900
620	2	9.999850	1.428550	27.142450
621	2	8.571300	2.857100	0.000000
622	1	9.999850	4.285650	1.428550
623	2	8.571300	2.857100	2.857100
624	1	9.999850	4.285650	4.285650
625	2	8.571300	2.857100	5.714200
626	1	9.999850	4.285650	7.142750
627	2	8.571300	2.857100	8.571300
628	1	9.999850	4.285650	9.999850
629	2	8.571300	2.857100	11.428400
630	2	9.999850	4.285650	12.856950
631	1	8.571300	2.857100	14.285500
632	2	9.999850	4.285650	15.714050
633	2	8.571300	2.857100	17.142600
634	2	9.999850	4.285650	18.571150
635	1	8.571300	2.857100	19.999700
636	2	9.999850	4.285650	21.428250
637	2	8.571300	2.857100	22.856800
638	2	9.999850	4.285650	24.285350
639	1	8.571300	2.857100	25.713900
640	2	9.999850	4.285650	27.142450
641	2	8.571300	5.714200	0.000000
642	1	9.999850	7.142750	1.428550
643	1	8.571300	5.714200	2.857100
644	1	9.999850	7.142750	4.285650
645	1	8.571300	5.714200	5.714200
646	2	9.999850	7.142750	7.142750
647	2	8.571300	5.714200	8.571300
648	1	9.999850	7.142750	9.999850
649	1	8.571300	5.714200	11.428400
650	2	9.999850	7.142750	12.856950
651	1	8.571300	5.714200	14.285500
652	2	9.999850	7.142750	15.714050
653	2	8.571300	5.714200	17.142600
654	1	9.999850	7.142750	18.571150
655	2	8.571300	5.714200	19.999700
656	1	9.999850	7.142750	21.428250
657	1	8.571300	5.714200	22.856800
658	2	9.999850	7.142750	24.285350
659	1	8.571300	5.714200	25.713900
660	1	9.999850	7.142750	27.142450
661	1	8.571300	8.571300	0.000000
662	2	9.999850	9.999850	1.428550
663	1	8.571300	8.571300	2.857100
664	2	9.999850	9.999850	4.285650
665	1	8.571300	8.571300	5.714200
666	1	9.999850	9.999850	7.142750
667	1	8.571300	8.571300	8.571300
668	2	9.999850	9.999850	9.999850
669	2	8.571300	8.571300	11.428400
670	1	9.999850	9.999850	12.856950
671	1	8.571300	8.571300	14.285500
672	1	9.999850	9.999850	15.714050
673	2	8.571300	8.571300	17.142600
674	1	9.999850	9.999850	18.571150
675	2	8.571300	8.571300	19.999700
676	1	9.999850	9.999850	21.428250
677	2	8.571300	8.571300	22.856800
678	1	9.999850	9.999850	24.285350
679	1	8.571300	8.571300	25.713900
680	1	9.999850	9.999850	27.142450
681	1	8.571300	11.428400	0.000000
682	1	9.999850	12.856950	1.428550
683	2	8.571300	11.428400	2.857100
684	1	9.999850	12.856950	4.285650
685	1	8.571300	11.428400	5.714200
686	2	9.999850	12.856950	7.142750
687	2	8.571300	11.428400	8.571300
688	1	9.999850	12.856950	9.999850
689	1	8.571300	11.428400	11.428400
690	1	9.999850	12.856950	12.856950
691	1	8.571300	11.428400	14.285500
692	2	9.999850	12.856950	15.714050
693	2	8.571300	11.428400	17.142600
694	1	9.999850	12.856950	18.571150
695	2	8.571300	11.428400	19.999700
696	1	9.999850	12.856950	21.428250
697	1	8.571300	11.428400	22.856800
698	2	9.999850	12.856950	24.285350
699	2	8.571300	11.428400	25.713900
700	1	9.999850	12.856950	27.142450
701	2	8.571300	14.285500	0.000000
702	1	9.999850	15.714050	1.428550
703	2	8.571300	14.285500	2.857100
704	2	9.999850	15.714050	4.285650
705	2	8.571300	14.285500	5.714200
706	1	9.999850	15.714050	7.142750
707	2	8.571300	14.285500	8.571300
708	2	9.999850	15.714050	9.999850
709	2	8.571300	14.285500	11.428400
710	2	9.999850	15.714050	12.856950
711	2	8.571300	14.285500	14.285500
712	1	9.999850	15.714050	15.714050
713	2	8.571300	14.285500	17.142600
714	1	9.999850	15.714050	18.571150
715	1	8.571300	14.285500	19.999700
716	1	9.999850	15.714050	21.428250
717	1	8.571300	14.285500	22.856800
718	1	9.999850	15.714050	24.285350
719	2	8.571300	14.285500	25.713900
720	2	9.999850	15.714050	27.142450
721	1	8.571300	17.142600	0.000000
722	1	9.999850	18.571150	1.428550
723	1	8.571300	17.142600	2.857100
724	1	9.999850	18.571150	4.285650
725	1	8.571300	17.142600	5.714200
726	2	9.999850	18.571150	7.142750
727	2	8.571300	17.142600	8.571300
728	1	9.999850	18.571150	9.999850
729	1	8.571300	17.142600	11.428400
730	1	9.999850	18.571150	12.856950
731	1	8.571300	17.142600	14.285500
732	2	9.999850	18.571150	15.714050
733	2	8.571300	17.142600	17.142600
734	1	9.999850	18.571150	18.571150
735	1	8.571300	17.142600	19.999700
736	2	9.999850	18.571150	21.428250
737	2	8.571300	17.142600	22.856800
738	1	9.999850	18.571150	24.285350
739	1	8.571300	17.142600	25.713900
740	2	9.999850	18.571150	27.142450
741	1	8.571300	19.999700	0.000000
742	1	9.999850	21.428250	1.428550
743	2	8.571300	19.999700	2.857100
744	2	9.999850	21.428250	4.285650
745	2	8.571300	19.999700	5.714200
746	2	9.999850	21.428250	7.142750
747	1	8.571300	19.999700	8.571300
748	1	9.999850	21.428250	9.999850
749	1	8.571300	19.999700	11.428400
750	1	9.999850	21.428250	12.856950
751	2	8.571300	19.999700	14.285500
752	1	9.999850	21.428250	15.714050
753	2	8.571300	19.999700	17.142600
754	2	9.999850	21.428250	18.571150
755	1	8.571300	19.999700	19.999700
756	2	9.999850	21.428250	21.428250
757	2	8.571300	19.999700	22.856800
758	2	9.999850	21.428250	24.285350
759	1	8.571300	19.999700	25.713900
760	2	9.999850	21.428250	27.142450
761	2	8.571300	22.856800	0.000000
762	1	9.999850	24.285350	1.428550
763	2	8.571300	22.856800	2.857100
764	2	9.999850	24.285350	4.285650
765	1	8.571300	22.856800	5.714200
766	2	9.999850	24.285350	7.142750
767	2	8.571300	22.856800	8.571300
768	2	9.999850	24.285350	9.999850
769	1	8.571300	22.856800	11.428400
770	1	9.999850	24.285350	12.856950
771	2	8.571300	22.856800	14.285500
772	2	9.999850	24.285350	15.714050
773	2	8.571300	22.856800	17.142600
774	1	9.999850	24.285350	18.571150
775	2	8.571300	22.856800	19.999700
776	2	9.999850	24.285350	21.428250
777	1	8.571300	22.856800	22.856800
778	1	9.999850	24.285350	24.285350
779	2	8.571300	22.856800	25.713900
780	1	9.999850	24.285350	27.142450
781	1	8.571300	25.713900	0.000000
782	1	9.999850	27.142450	1.428550
783	1	8.571300	25.713900	2.857100
784	2	9.999850	27.142450	4.285650
785	1	8.571300	25.713900	5.714200
786	1	9.999850	27.142450	7.142750
787	1	8.571300	25.713900	8.571300
788	2	9.999850	27.142450	9.999850
789	2	8.571300	25.713900	11.428400
790	2	9.999850	27.142450	12.856950
791	2	8.571300	25.713900	14.285500
792	1	9.999850	27.142450	15.714050
793	1	8.571300	25.713900	17.142600
794	1	9.999850	27.142450	18.571150
795	1	8.571300	25.713900	19.999700
796	2	9.999850	27.142450	21.428250
797	1	8.571300	25.713900	22.856800
798	1	9.999850	27.142450	24.285350
799	2	8.571300	25.713900	25.713900
800	1	9.999850	27.142450	27.142450
801	2	11.428400	0.000000	0.000000
802	1	12.856950	1.428550	1.428550
803	2	11.428400	0.000000	2.857100
804	1	12.856950	1.428550	4.285650
805	2	11.428400	0.000000	5.714200
806	2	12.856950	1.428550	7.142750
807	2	11.428400	0.000000	8.571300
808	2	12.856950	1.428550	9.999850
809	2	11.428400	0.000000	11.428400
810	2	12.856950	1.428550	12.856950
811	2	11.428400	0.000000	14.285500
812	2	12.856950	1.428550	15.714050
813	1	11.428400	0.000000	17.142600
814	2	12.856950	1.428550	18.571150
815	1	11.428400	0.000000	19.999700
816	1	12.856950	1.428550	21.428250
817	1	11.428400	0.000000	22.856800
818	2	12.856950	1.428550	24.285350
819	1	11.428400	0.000000	25.713900
820	1	12.856950	1.428550	27.142450
821	2	11.428400	2.857100	0.000000
822	1	12.856950	4.285650	1.428550
823	2	11.428400	2.857100	2.857100
824	2	12.856950	4.285650	4.285650
825	2	11.428400	2.857100	5.714200
826	2	12.856950	4.285650	7.142750
827	2	11.428400	2.857100	8.571300
828	1	12.856950	4.285650	9.999850
829	1	11.428400	2.857100	11.428400
830	1	12.856950	4.285650	12.856950
831	1	11.428400	2.857100	14.285500
832	2	12.856950	4.285650	15.714050
833	2	11.428400	2.857100	17.142600
834	2	12.856950	4.285650	18.571150
835	2	11.428400	2.857100	19.999700
836	1	12.856950	4.285650	21.428250
837	1	11.428400	2.857100	22.856800
838	2	12.856950	4.285650	24.285350
839	1	11.428400	2.857100	25.713900
840	1	12.856950	4.285650	27.142450
841	1	11.428400	5.714200	0.000000
842	1	12.856950	7.142750	1.428550
843	1	11.428400	5.714200	2.857100
844	2	12.856950	7.142750	4.285650
845	2	11.428400	5.714200	5.714200
846	1	12.856950	7.142750	7.142750
847	1	11.428400	5.714200	8.571300
848	1	12.856950	7.142750	9.999850
849	2	11.428400	5.714200	11.428400
850	1	12.856950	7.142750	12.856950
851	1	11.428400	5.714200	14.285500
852	2	12.856950	7.142750	15.714050
853	1	11.428400	5.714200	17.142600
854	2	12.856950	7.142750	18.571150
855	2	11.428400	5.714200	19.999700
856	1	12.856950	7.142750	21.428250
857	1	11.428400	5.714200	22.856800
858	1	12.856950	7.142750	24.285350
859	2	11.428400	5.714200	25.713900
860	2	12.856950	7.142750	27.142450
861	2	11.428400	8.571300	0.000000
862	1	12.856950	9.999850	1.428550
863	1	11.428400	8.571300	2.857100
864	1	12.856950	9.999850	4.285650
865	2	11.428400	8.571300	5.714200
866	1	12.856950	9.999850	7.142750
867	1	11.428400	8.571300	8.571300
868	1	12.856950	9.999850	9.999850
869	1	11.428400	8.571300	11.428400
870	2	12.856950	9.999850	12.856950
871	1	11.428400	8.571300	14.285500
872	1	12.856950	9.999850	15.714050
873	2	11.428400	8.571300	17.142600
874	1	12.856950	9.999850	18.571150
875	1	11.428400	8.571300	19.999700