ITEM: TIMESTEP
500000
ITEM: NUMBER OF ATOMS
13500
ITEM: BOX BOUNDS pp pp pp
-1.5114679400589637e+00 5.5736467940058674e+01
-1.5114679400589637e+00 5.5736467940058674e+01
-1.5114679400589637e+00 5.5736467940058674e+01
ITEM: ATOMS id type x y z 
4449 1 0.572917 14.9361 -0.315775 
12714 1 1.79652 -0.614265 2.57749 
8 1 2.56261 4.91547 1.42033 
2307 1 0.977164 2.84389 0.184097 
981 1 -0.120465 -0.968697 0.657259 
6624 1 2.04391 0.532684 0.432941 
2108 1 4.81948 -1.06098 -1.18571 
7017 1 3.39648 2.65101 0.431442 
2132 1 5.46581 7.09798 2.6855 
2288 1 -0.00414909 16.1573 5.52526 
2793 1 15.1785 16.9636 3.74045 
4794 1 6.05854 2.53025 0.151715 
11884 1 16.6959 -0.972938 12.3761 
4426 1 7.28845 0.00531987 3.84345 
6429 1 26.7771 2.0358 7.98602 
2216 1 5.66656 -0.631826 1.25854 
7071 1 6.75173 0.504081 -1.01401 
5338 1 7.84154 1.05509 1.38149 
2987 1 10.2475 0.621599 1.73513 
6386 1 11.547 -1.00587 2.75179 
7418 1 12.7575 0.570723 1.10761 
2443 1 2.70307 15.7513 9.07665 
10157 1 13.3063 2.36338 4.11366 
6994 1 11.6297 3.00605 2.16768 
7600 1 11.3098 2.09218 -0.290913 
7487 1 -1.07504 11.2603 11.7039 
12735 1 16.199 1.99262 3.25353 
2011 1 15.8501 3.70701 0.749054 
4942 1 17.7128 -0.0293397 2.52908 
5306 1 14.3025 2.33439 1.84888 
8798 1 23.188 -1.35717 5.23363 
6650 1 16.1899 0.932376 1.0202 
11219 1 -0.885508 12.9259 8.03924 
6782 1 22.2321 2.38766 0.0742958 
7295 1 22.1208 1.33606 2.21322 
6333 1 16.6697 17.1586 1.71494 
770 1 17.2447 3.83556 11.7296 
11524 1 22.3614 3.60313 3.22567 
9481 1 19.99 0.24007 1.07518 
5081 1 26.0788 14.2723 3.9014 
2846 1 24.3667 0.714919 1.02686 
6937 1 24.631 2.68714 -0.551234 
975 1 25.6067 0.835205 3.62323 
12490 1 23.3184 -0.75535 2.68604 
6449 1 10.474 0.155378 9.46385 
3046 1 22.3305 3.15931 12.6148 
592 1 12.7399 7.15878 -0.00425768 
8829 1 21.8931 -1.44744 9.68917 
133 1 -0.526115 7.87313 0.595359 
11484 1 25.6189 13.562 1.64103 
4068 1 0.0861548 4.84778 0.469306 
9355 1 0.678077 9.89398 -0.148839 
7468 1 2.73697 4.99782 -0.934964 
4446 1 4.00758 8.37167 -0.573949 
1516 1 -0.798787 3.81644 -1.23705 
13385 1 22.5618 -0.561875 0.0372802 
41 1 7.34625 3.21088 2.39471 
2557 1 7.34008 6.80513 0.24753 
5821 1 -1.16049 11.8158 -0.258248 
891 1 9.17747 4.89134 0.395715 
11256 1 6.67269 4.90878 -1.11936 
6662 1 10.1368 4.70024 4.23393 
6779 1 16.1933 12.9148 12.4014 
1913 1 9.89348 7.56431 1.51646 
1993 1 8.63257 1.9412 -0.351357 
5280 1 11.0933 5.50545 2.12229 
721 1 9.71067 3.15703 1.80419 
883 1 -0.0517506 0.502971 -1.12342 
12948 1 15.0056 4.49818 3.4193 
6795 1 13.5399 4.72185 1.14995 
8209 1 15.0186 8.42061 1.5069 
13048 1 11.3497 4.70032 0.191371 
2855 1 9.26218 11.7468 -1.15901 
823 1 18.552 7.44781 0.756246 
2542 1 20.2297 9.22638 -0.593041 
6894 1 17.4553 5.6159 -0.126706 
1793 1 16.6324 5.69652 4.52145 
239 1 17.3287 8.14314 2.9282 
373 1 18.2701 2.77159 0.875936 
8757 1 20.3408 4.11618 3.28771 
6977 1 18.9231 4.89616 1.16542 
6906 1 20.5691 7.90326 1.88878 
1 1 21.7146 5.51715 1.51897 
8017 1 20.6357 7.0256 -0.653251 
4096 1 18.9868 6.15798 3.5661 
6376 1 23.4939 5.03712 -0.154662 
2425 1 20.9008 4.18477 -0.351202 
6964 1 23.8018 5.18823 3.14569 
12006 1 22.3051 8.31152 0.350347 
7072 1 19.9943 -0.816833 -1.04787 
3 1 25.0769 3.56836 1.62674 
9406 1 26.9323 -1.39733 10.8986 
10293 1 -0.967877 12.0582 3.31435 
2722 1 23.176 15.6088 11.5616 
2129 1 10.9307 -0.41499 -0.117826 
2003 1 22.1794 7.90572 2.93466 
2272 1 3.01823 12.2437 -1.52889 
2187 1 24.3365 8.81359 12.3312 
10017 1 -0.365375 10.2073 4.30292 
1905 1 27.0375 11.7869 0.791819 
2092 1 17.82 16.9034 9.82761 
7202 1 23.8346 7.32439 -1.21486 
3361 1 3.94123 9.64053 1.8635 
11173 1 3.00374 11.8364 0.966358 
516 1 6.81562 12.7026 0.164728 
9032 1 5.6216 10.0175 3.55563 
2555 1 5.05238 13.3065 1.973 
585 1 9.14109 3.73419 12.5836 
2744 1 8.59388 5.595 2.61477 
4799 1 7.17096 12.548 2.82174 
8980 1 23.8053 17.2896 10.1225 
4056 1 7.89901 8.7813 2.90468 
8578 1 10.6949 12.1151 2.35817 
3016 1 9.03127 10.9195 1.57946 
8323 1 8.42371 9.11305 -0.381033 
2559 1 13.3404 9.60297 3.61083 
3484 1 14.4971 13.1199 2.2688 
291 1 11.331 11.617 -0.071745 
8419 1 11.1591 9.45539 2.72512 
3804 1 12.8476 9.91425 1.08568 
4291 1 15.9063 6.15458 1.74547 
8145 1 2.90623 -0.12314 -1.49538 
1424 1 16.4374 10.2654 2.12224 
5748 1 -1.19604 2.33871 4.56438 
8312 1 15.7189 10.8981 0.0788908 
6567 1 16.7527 8.56401 -0.135652 
2595 1 19.129 11.6791 2.60621 
4452 1 17.7972 11.732 0.119534 
11331 1 11.0986 14.2152 -0.742856 
9390 1 18.8652 9.58381 1.17615 
5399 1 15.3682 -1.02996 4.32099 
11094 1 20.1258 12.0209 0.43409 
8952 1 22.8639 10.3387 -0.323321 
7014 1 21.5808 10.3526 1.58122 
5016 1 -1.36673 10.3844 8.8541 
8937 1 0.693886 0.937447 2.56068 
7476 1 25.8373 14.6325 -0.900594 
117 1 24.5075 9.79162 2.10116 
2337 1 23.0229 10.8514 3.83338 
4110 1 24.6607 11.7432 0.16274 
1316 1 26.4651 7.5223 1.08012 
11008 1 24.3142 6.38021 11.5717 
145 1 1.43016 14.5537 2.27363 
4465 1 0.664552 12.9715 0.750506 
9000 1 1.04002 12.4112 3.648 
12271 1 14.4402 0.251312 12.3205 
7412 1 10.3606 9.73249 0.118172 
7873 1 4.79888 10.5309 -1.12027 
7137 1 -0.255637 15.0173 12.6071 
10531 1 2.98645 13.8821 0.399604 
11543 1 0.335294 16.9155 12.6987 
10598 1 3.76305 16.2198 1.52868 
3037 1 5.10311 14.6095 0.0296438 
662 1 -1.24188 4.27286 11.4184 
9474 1 3.14425 13.5998 3.1745 
4344 1 6.86655 14.3223 1.90957 
2757 1 26.5739 6.96078 7.07024 
12828 1 18.5898 13.0336 12.1649 
2910 1 26.807 17.2687 1.01265 
6867 1 4.18802 8.34848 12.1433 
9207 1 -0.972824 14.613 3.73129 
7074 1 9.27262 13.2677 0.596231 
2204 1 6.57624 17.212 1.29548 
5655 1 14.6001 0.208759 2.51252 
7263 1 8.72048 16.3804 2.58501 
5585 1 8.15146 15.3686 0.130654 
2327 1 10.4854 16.0687 0.570198 
8995 1 14.0049 12.5579 0.380734 
6488 1 12.6345 15.74 -0.0151331 
11540 1 11.9228 13.9312 1.41785 
3139 1 13.4321 15.864 2.19271 
2379 1 11.1762 15.7392 3.34752 
3953 1 15.1144 14.8058 0.987105 
2440 1 8.55063 -0.467554 10.583 
4648 1 13.3894 1.27679 10.2056 
7357 1 25.5139 9.11769 -0.486583 
2501 1 16.7794 12.6166 2.80349 
6897 1 17.1086 15.5077 -0.147963 
2937 1 16.4175 13.2658 -0.632312 
2142 1 17.9759 13.7066 1.03945 
12313 1 25.7742 5.40679 0.160162 
7772 1 9.52202 13.674 12.1805 
5812 1 18.7269 13.4609 -1.48403 
4074 1 23.7644 15.0028 0.156046 
4512 1 -0.533083 16.7705 0.420822 
7594 1 23.2287 16.9402 1.08848 
815 1 17.2435 14.3509 9.80226 
3956 1 13.8883 0.921537 -0.517948 
5516 1 4.42439 1.14869 -1.16568 
8914 1 23.0417 12.4579 1.71924 
139 1 25.5757 13.9493 9.35902 
12940 1 24.6107 16.6794 -1.13015 
11677 1 26.7427 9.46321 2.69554 
9611 1 14.6122 16.793 -0.276805 
11752 1 2.23348 2.5188 2.88927 
9565 1 15.9021 16.2473 8.19191 
1728 1 3.42098 4.29721 12.6203 
3001 1 0.095697 3.16872 7.10532 
11654 1 14.7816 12.5596 10.2366 
653 1 5.22083 0.360358 4.68139 
2632 1 2.58059 -1.40116 4.69248 
2661 1 3.62031 0.69444 2.03304 
331 1 3.76764 2.60193 4.8299 
3987 1 2.22348 0.937332 6.28647 
9190 1 11.6616 16.8963 12.4588 
2178 1 4.38184 0.043594 7.54332 
6951 1 5.50927 1.40428 2.71489 
6267 1 16.6289 0.705914 -1.38855 
9291 1 10.7128 -0.908524 6.96409 
152 1 6.35835 1.12752 8.37516 
306 1 6.19509 2.35176 5.02071 
9618 1 8.42017 2.17915 3.80028 
5133 1 6.52976 -0.854956 6.65637 
8012 1 9.92174 -0.104843 4.41456 
2276 1 14.1155 11.0794 -1.5161 
7061 1 11.5212 0.99673 6.25771 
499 1 8.53614 1.30778 6.10695 
9710 1 14.8106 2.65697 7.24218 
2214 1 12.958 -0.00174063 4.29341 
656 1 17.908 2.03268 4.81317 
5174 1 18.9978 1.83925 2.90752 
11650 1 17.4594 4.4817 2.62501 
2466 1 17.5013 1.06978 6.99406 
4545 1 15.9521 -1.12568 6.72429 
5397 1 21.0628 -0.891168 2.23962 
6902 1 20.8668 2.39221 4.91234 
3065 1 22.3007 0.867407 4.38922 
2273 1 19.3182 2.18478 8.56558 
10854 1 21.2775 0.406991 6.2859 
2715 1 20.1005 -0.196254 9.04971 
1101 1 20.0739 0.237784 3.97701 
262 1 21.0868 2.03095 10.5156 
11981 1 19.2777 -0.208617 6.53158 
1831 1 15.2896 2.94047 10.8065 
157 1 23.0862 -0.481363 7.53434 
8767 1 7.96612 13.6357 -1.42797 
727 1 24.1673 2.56595 3.34171 
4811 1 26.2574 0.345135 6.20005 
7244 1 24.6047 2.1227 6.13978 
4473 1 0.0616174 3.6661 2.56527 
1848 1 0.943678 2.3062 4.5931 
1720 1 1.62532 7.88044 0.921121 
2265 1 0.840735 6.2563 2.50816 
6586 1 3.92858 7.77512 9.06809 
2665 1 26.9321 6.0428 10.6854 
4396 1 0.882134 6.16437 4.70858 
5173 1 -0.64151 4.50446 5.1026 
436 1 0.584973 5.8504 6.98076 
1532 1 7.02775 5.58267 4.35012 
8294 1 2.44036 4.80152 3.66262 
1851 1 3.35762 6.73853 5.24772 
5139 1 4.62466 4.43479 5.08255 
870 1 10.9917 2.1924 4.02405 
219 1 7.31129 3.88148 5.65262 
1635 1 4.8409 4.14593 2.75249 
5829 1 9.93454 4.57044 6.83808 
8600 1 10.0357 7.00786 3.85023 
8570 1 8.77682 6.60871 5.88753 
3012 1 11.1979 7.0643 6.52657 
2705 1 5.75095 5.85376 6.46456 
806 1 9.27013 6.44638 8.05392 
2975 1 9.18739 10.8344 6.81869 
8633 1 14.9882 7.35144 3.66024 
10354 1 14.1374 5.05063 8.21096 
202 1 13.0004 7.45875 4.61179 
8540 1 13.0247 6.73032 2.17448 
5361 1 11.2808 5.53686 9.55878 
3321 1 15.261 1.38333 5.38459 
4672 1 14.1429 5.65237 5.71859 
2713 1 15.8134 3.86567 5.85581 
7328 1 15.9992 4.59683 8.80071 
6647 1 18.4114 4.02315 7.50579 
2061 1 21.1538 4.28782 8.56196 
11502 1 18.0454 6.38819 5.65683 
982 1 12.1815 3.63801 5.88223 
619 1 18.7914 8.49829 4.20028 
4059 1 22.7829 2.79946 7.34661 
2894 1 18.5494 4.28957 5.06373 
8883 1 20.4856 6.37867 5.68934 
5214 1 21.5934 6.03495 3.5407 
7974 1 21.5311 7.42657 8.07668 
2032 1 21.3319 9.12195 5.36971 
8724 1 25.0879 4.62071 6.46694 
408 1 23.3068 4.30394 5.2593 
6639 1 22.92 6.98953 5.38063 
90 1 25.6451 6.80172 4.94622 
10321 1 10.7493 8.84034 12.1245 
5547 1 22.8594 5.22059 7.63658 
5569 1 -0.662741 8.21762 7.66005 
5533 1 2.07393 10.6501 5.41483 
813 1 -0.897873 7.93104 2.83101 
250 1 18.3477 16.5273 7.10548 
2343 1 26.5726 15.9743 9.0753 
5971 1 -0.192685 10.3569 6.87773 
10963 1 3.57247 9.89031 7.99785 
2530 1 1.39302 12.0544 7.66062 
7252 1 -1.15428 7.28599 5.10625 
9701 1 1.22142 10.1644 2.20414 
496 1 6.39117 9.26751 1.07647 
477 1 1.22591 8.43154 4.57991 
13480 1 7.22927 8.72425 6.49833 
2677 1 3.74819 8.54719 3.83064 
6687 1 3.34658 10.8706 3.34045 
2699 1 4.30333 10.2271 5.87274 
3322 1 7.39079 10.7148 4.64297 
10221 1 8.87337 12.244 4.72605 
9030 1 6.93682 7.65738 4.50481 
7378 1 9.63332 10.2447 4.2033 
2149 1 11.7559 9.44911 8.36043 
7207 1 11.4274 9.7528 5.11511 
956 1 11.5612 14.6372 7.24431 
467 1 13.6111 9.19597 6.78661 
7162 1 14.4661 11.1299 2.83405 
2539 1 11.7165 11.4932 6.59039 
10947 1 16.7743 8.96788 7.03909 
3386 1 13.4529 7.02048 7.34565 
5037 1 15.613 11.1126 6.28396 
136 1 18.6919 12.1848 10.3599 
2199 1 19.3071 12.8514 6.94924 
3145 1 15.5498 9.4568 4.46919 
2835 1 17.7124 12.7938 4.87951 
3042 1 15.5262 7.36895 6.18591 
10984 1 17.5781 10.3203 4.907 
10231 1 18.0825 10.7769 7.18663 
12309 1 20.7104 9.85218 3.6164 
3123 1 20.1299 13.8292 5.34346 
47 1 21.149 13.0926 3.56768 
1026 1 21.9716 9.82484 7.45929 
263 1 25.0078 8.61338 5.62336 
10939 1 19.6911 11.4949 5.09654 
2369 1 23.2152 8.83342 9.66077 
9508 1 25.1425 12.3466 3.44771 
8867 1 24.9926 7.71761 3.23117 
6653 1 23.4384 12.9084 10.2278 
12279 1 24.0174 13.4377 7.16563 
7106 1 23.7433 14.6974 2.83269 
7787 1 2.78505 15.505 4.18282 
13095 1 26.3433 1.46748 1.3862 
501 1 2.8098 13.2439 8.72821 
2329 1 6.67871 16.4433 11.8895 
2809 1 0.300604 16.0074 7.87046 
3159 1 15.1626 6.64051 -0.818437 
2733 1 5.37134 12.7009 4.41925 
4416 1 2.60881 13.3509 5.28733 
8729 1 5.11377 15.4451 4.07614 
5405 1 5.36524 14.5008 6.28405 
9590 1 1.1792 14.2785 6.68117 
3106 1 9.07244 14.0578 3.40126 
5188 1 8.04868 15.2966 6.76766 
3251 1 8.04979 16.2164 4.75229 
4204 1 9.65626 14.3787 5.70161 
9209 1 2.27354 15.9702 12.3627 
4461 1 5.6189 16.415 7.85174 
13260 1 7.18685 13.9586 4.50873 
8903 1 14.0323 14.5011 6.91786 
7642 1 21.9428 16.6654 -0.747894 
9681 1 13.6058 15.0087 4.31199 
11283 1 19.2264 16.8743 4.66114 
6038 1 18.6712 14.6088 3.60066 
5591 1 16.9778 14.2922 7.14064 
7541 1 16.3608 14.8728 2.68926 
53 1 16.6116 16.1763 5.69995 
892 1 19.6764 14.5664 8.98442 
11129 1 15.7177 13.558 5.05523 
8641 1 14.0899 16.6554 5.79306 
12637 1 21.3001 14.5955 1.62143 
2649 1 20.5114 14.5081 -0.466 
9414 1 22.1209 11.8183 5.79046 
2296 1 21.8406 14.3362 7.59204 
229 1 23.5717 15.165 8.93692 
1357 1 21.968 15.9562 3.49367 
6807 1 20.9723 16.3218 5.98511 
7566 1 21.5483 16.0886 10.2795 
11865 1 9.94049 17.0237 4.68833 
9051 1 22.8885 14.1868 5.03462 
6689 1 26.7453 15.3707 11.5135 
8477 1 24.9402 17.5939 8.13606 
7429 1 26.1546 13.0316 5.64616 
2725 1 23.472 16.2112 6.57131 
11138 1 24.7622 16.2951 4.95494 
11122 1 14.6089 8.91627 -1.15494 
2625 1 5.11562 17.0541 5.58561 
6634 1 0.818855 -0.122491 7.62762 
336 1 9.84065 11.4711 11.9506 
10054 1 0.762255 2.98759 9.58641 
11042 1 3.52748 -1.15984 11.8191 
5233 1 1.97104 4.15337 5.931 
693 1 3.3722 15.9319 6.80846 
3411 1 4.60392 1.9914 6.98916 
12687 1 2.54114 2.34632 8.39133 
4946 1 6.16802 -0.971605 10.997 
368 1 2.07109 0.245225 9.6504 
478 1 19.6365 4.16772 10.4989 
3402 1 2.37977 2.14066 11.0662 
7360 1 27.1413 7.91371 9.62498 
5486 1 8.62642 2.84728 8.18276 
463 1 4.59561 2.12 9.51329 
7953 1 7.33916 2.44455 10.4128 
9152 1 20.5598 16.8317 1.55973 
1998 1 6.17235 3.44436 8.00022 
7236 1 26.1621 10.0586 10.718 
6748 1 13.4622 -0.0777597 6.34258 
321 1 9.92017 2.66861 5.98314 
4117 1 11.1321 2.22814 7.91719 
11506 1 13.077 0.325669 8.29192 
4764 1 13.2595 3.90728 10.3891 
11403 1 11.3526 2.41745 10.4914 
10825 1 9.23501 16.4243 11.5007 
5055 1 17.7873 0.65268 9.25901 
9336 1 15.7677 0.295494 8.21584 
5694 1 16.146 0.802078 10.6801 
7510 1 16.5785 15.6397 11.6176 
4945 1 17.7936 5.41569 9.98515 
405 1 14.8141 -1.08491 10.3147 
1435 1 19.7133 -0.189866 11.5266 
2653 1 -0.0741153 16.442 2.92691 
7141 1 12.1549 -0.365242 11.4437 
376 1 18.4693 1.72453 11.2458 
9827 1 3.8206 16.6017 10.6093 
13471 1 27.0137 1.20928 10.3341 
11767 1 25.3279 3.76378 9.06272 
7089 1 23.0799 4.23437 10.1383 
4813 1 22.8475 0.232 11.5176 
2294 1 19.0563 16.563 -1.17544 
8614 1 25.5019 4.21843 11.2139 
2569 1 24.4816 1.11543 8.67512 
5930 1 1.08966 5.12742 11.0832 
1816 1 -0.96554 6.70219 11.124 
667 1 1.81609 7.59609 -1.31211 
1275 1 1.99957 4.76003 8.58774 
8819 1 -0.603753 4.91895 9.26857 
6132 1 6.83908 4.35894 11.4705 
6655 1 8.17888 9.14555 10.4621 
3073 1 5.66162 5.42823 9.01934 
3135 1 14.1244 14.6227 12.6771 
6837 1 2.67365 6.93671 11.1984 
1427 1 3.37623 4.31512 10.1982 
5435 1 4.88648 5.58876 11.2376 
12935 1 7.18926 6.56861 12.1964 
3142 1 3.99048 4.53333 7.74605 
4743 1 8.60744 -1.02178 0.502385 
3170 1 11.191 17.5128 8.83556 
2021 1 7.45742 10.3569 8.43086 
7713 1 9.90748 7.57893 9.92695 
11325 1 7.01766 7.18696 8.13317 
3645 1 9.504 6.1661 12.2278 
9966 1 3.70249 16.624 -1.09033 
7262 1 10.2568 4.11932 10.7126 
7472 1 8.19156 5.25531 10.0383 
3529 1 12.5337 7.35541 8.99193 
1292 1 18.1426 7.41815 8.47204 
1090 1 19.599 6.10899 7.71526 
472 1 17.1219 2.74543 9.13289 
10525 1 15.4726 7.73135 8.76167 
655 1 14.659 5.53955 11.1115 
4689 1 19.6209 6.42181 10.1266 
11658 1 19.6413 1.90041 -0.416231 
7582 1 4.53823 11.7986 11.9732 
11275 1 19.0936 8.71486 6.45298 
2116 1 22.0571 5.10208 11.9684 
12087 1 20.4295 7.1522 12.162 
2402 1 22.3489 6.97853 10.1989 
4626 1 18.382 8.16772 11.28 
881 1 21.4058 9.47339 12.0768 
4245 1 8.88657 17.0319 8.76176 
9165 1 24.3189 6.14427 9.04962 
650 1 23.9824 7.78984 7.30066 
2506 1 0.889973 7.00616 9.54724 
5589 1 -0.191409 1.21165 12.0191 
2631 1 -0.796125 9.06256 10.1561 
2949 1 1.14839 9.71443 9.05007 
5714 1 0.382046 12.4034 9.44059 
1777 1 1.05822 10.7559 10.7276 
8245 1 1.9172 8.16594 6.68061 
3193 1 3.2483 9.62481 10.4807 
11273 1 1.05155 8.69765 11.5515 
11826 1 25.8852 -0.531823 8.73553 
855 1 5.23981 8.09725 6.11689 
2581 1 5.58755 9.75758 9.37672 
11396 1 4.30929 12.0037 9.75508 
8957 1 6.71634 12.1744 6.41037 
4815 1 0.0695857 0.200705 4.40459 
8656 1 9.06863 8.51479 7.79612 
2734 1 11.6568 13.3615 11.3649 
819 1 12.2034 10.4849 10.271 
2752 1 11.4852 12.1501 8.88379 
1398 1 9.05945 13.1718 7.70578 
524 1 13.8045 12.1282 8.30304 
962 1 12.0049 6.11511 11.5192 
51 1 15.0495 14.0274 8.79796 
11661 1 9.672 10.6093 9.26751 
4149 1 14.4617 10.5854 11.0032 
233 1 14.1218 9.68364 8.84793 
1733 1 13.7914 8.2878 11.031 
6784 1 16.2687 11.0046 8.71682 
11665 1 19.3635 10.4162 12.1676 
2541 1 18.4262 10.1016 9.45757 
6214 1 8.65565 6.29096 -1.24014 
5497 1 16.8023 10.8971 11.5495 
8165 1 7.69252 1.12249 12.7574 
370 1 18.9853 15.0492 11.4213 
8776 1 20.2087 8.95896 10.0003 
6167 1 20.3223 10.9791 8.28354 
1222 1 20.9334 13.3965 10.7938 
9117 1 22.0317 11.067 10.1702 
134 1 21.8479 13.999 12.4748 
11821 1 24.0965 6.82082 1.36085 
7331 1 23.9357 10.7702 6.77652 
388 1 25.1516 8.17851 10.58 
659 1 25.1949 11.4381 9.03395 
4247 1 12.8526 16.0533 10.9922 
2932 1 25.362 9.34142 8.09579 
843 1 20.9165 16.7821 12.3146 
8163 1 16.0556 9.10414 10.4029 
5186 1 23.9137 10.5091 10.7749 
107 1 25.5066 12.6285 11.2577 
3790 1 0.820525 -0.961717 10.9109 
399 1 25.3933 4.31809 4.13953 
5661 1 -0.814168 12.9373 5.48494 
2762 1 26.5368 10.6503 5.72035 
2525 1 1.59866 13.2973 11.7002 
9487 1 6.22871 17.3968 9.83445 
5601 1 5.03781 3.07191 11.8106 
50 1 6.67853 11.9747 9.99104 
11192 1 6.99508 11.7669 12.067 
9241 1 26.5592 5.58173 2.59848 
9534 1 0.545613 15.1578 10.2123 
4369 1 4.03249 12.1377 6.92641 
3157 1 5.90159 14.1048 11.2788 
2986 1 3.45262 13.9807 11.0705 
3873 1 4.91071 13.8455 8.97861 
81 1 25.2032 15.9766 1.93171 
8773 1 25.5334 -0.86713 -0.116027 
948 1 12.8691 14.2138 9.19797 
4325 1 8.73023 12.9834 9.85722 
10201 1 14.7467 16.7578 10.1669 
9713 1 6.97832 13.5072 8.3419 
3191 1 7.26642 15.2905 9.46289 
6107 1 8.7787 0.381216 7.75424 
10324 1 10.0425 1.46766 11.9581 
2298 1 9.86915 14.6199 9.49083 
8885 1 13.4475 16.6371 8.05854 
11926 1 16.9419 6.48887 12.6371 
13146 1 17.809 -0.970791 0.250918 
12021 1 0.890293 -1.26664 6.02898 
5495 1 14.4731 17.0004 12.4791 
4936 1 26.8345 5.29958 8.14983 
4630 1 17.8769 3.48688 -1.22078 
6908 1 -1.44936 1.34895 0.853511 
7752 1 -1.46374 10.5664 1.34865 
9932 1 27.0475 8.65519 12.1738 
8630 1 -1.4774 13.5129 1.51655 
348 1 20.0531 3.07865 12.746 
4880 1 1.21871 4.25355 13.3985 
627 1 0.419947 0.684772 14.9367 
7749 1 3.30653 5.14408 26.4307 
12437 1 -1.35995 9.10335 15.4465 
1007 1 -0.0549448 2.76592 16.6171 
1971 1 1.41865 1.94149 17.9773 
5828 1 3.40429 0.235158 17.9896 
1035 1 4.43687 0.374431 20.3226 
8785 1 -1.32507 -0.651192 14.327 
3166 1 3.28749 1.23245 15.3243 
818 1 6.36846 -0.0699066 18.2355 
6866 1 7.17796 2.5024 16.625 
4268 1 2.467 1.88308 13.4385 
5871 1 9.95095 2.06938 17.6861 
3050 1 11.0968 0.930062 16.0322 
407 1 8.98796 2.09346 14.5912 
504 1 7.45632 17.2339 18.1315 
4646 1 8.70111 0.167036 16.3247 
12896 1 11.2815 2.98732 13.1968 
6652 1 14.6542 -0.176067 16.8079 
10680 1 10.883 3.53374 15.6413 
11342 1 26.5687 0.315472 16.7268 
6669 1 16.0345 3.55002 14.3364 
2922 1 0.714181 15.5324 26.5736 
8500 1 13.342 1.96909 15.1996 
10803 1 24.8218 12.3429 20.7748 
4842 1 12.3741 0.85721 13.3964 
3255 1 -1.29471 16.1716 14.4131 
10912 1 16.5193 0.118253 14.3882 
9874 1 17.1408 1.98894 17.6219 
983 1 27.0091 16.6649 15.8584 
5450 1 18.6616 -0.0558959 13.7331 
5606 1 16.8016 11.9484 26.0039 
7368 1 18.3105 1.90551 15.7878 
4731 1 22.1214 3.2534 16.6749 
6962 1 15.988 1.54388 15.7601 
535 1 20.0232 1.70575 17.5711 
12815 1 21.4202 2.25298 14.5148 
5220 1 21.6223 -0.123873 13.7178 
12483 1 26.3662 3.02048 15.3159 
4922 1 23.5802 -0.705691 14.5153 
2890 1 25.6678 0.61468 14.7429 
6182 1 25.071 2.10124 17.111 
9601 1 24.4242 -0.642266 18.0273 
1603 1 26.0925 7.37165 15.4442 
173 1 21.989 0.452095 18.4132 
971 1 1.04337 7.59766 15.4365 
919 1 -0.423277 5.22237 17.6524 
3230 1 1.51596 7.05474 17.8307 
2138 1 2.57748 9.14522 13.3746 
7981 1 23.868 1.72578 12.9965 
897 1 -0.990114 6.28351 15.9448 
1122 1 3.89493 -1.21982 15.2914 
5206 1 1.08134 -0.982867 22.8219 
3419 1 6.27084 7.29128 14.6115 
7846 1 3.18859 8.55367 15.9056 
5090 1 27.0393 1.26405 25.1663 
7208 1 3.17959 6.82904 13.5752 
9965 1 6.12166 4.85777 15.822 
5911 1 3.0102 5.04101 17.5184 
8218 1 4.98521 2.89444 14.2376 
5292 1 5.3114 5.38091 13.2957 
7381 1 10.3443 5.13448 14.0102 
5027 1 8.05273 5.57393 14.0208 
11131 1 26.1697 2.6311 12.8905 
2947 1 12.1148 5.90309 15.6404 
5028 1 8.94477 3.80944 16.4712 
5398 1 8.20079 6.4297 16.2848 
3941 1 13.6077 4.31958 16.7957 
240 1 16.8195 3.75072 16.2018 
6346 1 13.5825 4.18907 14.4758 
4902 1 11.3245 4.1835 17.7705 
531 1 13.3477 7.86438 14.8359 
1108 1 11.0548 7.4344 16.5121 
7151 1 23.644 13.1891 12.7879 
6216 1 14.7312 2.20771 18 
7110 1 17.7143 5.98168 16.7824 
833 1 -1.26242 11.3568 17.1627 
2518 1 17.9732 3.59216 14.0419 
11093 1 20.0199 4.66628 17.5122 
9483 1 20.2447 6.59393 16.2557 
7024 1 22.0806 7.996 16.1498 
409 1 23.0189 5.75124 15.5703 
11857 1 22.0191 6.23336 18.1391 
7988 1 24.119 2.80861 14.8291 
12671 1 20.4561 8.68038 18.3262 
279 1 21.2324 4.83942 14.4366 
4130 1 23.9177 16.969 13.9942 
9859 1 27.0636 3.8204 17.2767 
7432 1 24.3011 7.3333 16.849 
5998 1 24.3068 4.50376 17.0371 
7055 1 24.327 7.12891 14.4083 
7855 1 14.4301 -1.09683 14.3073 
8031 1 26.1734 4.53066 26.6005 
764 1 1.39384 11.7564 17.4958 
2956 1 2.08622 9.87958 17.4319 
7002 1 4.22248 7.42035 17.7273 
4481 1 2.72177 11.1224 15.4339 
9768 1 11.8711 15.0238 13.1367 
5393 1 4.89383 9.38496 14.6082 
6745 1 5.2535 9.56657 17.7297 
9498 1 5.38107 11.5318 16.279 
5266 1 7.51573 13.4913 15.7479 
4027 1 5.42974 11.6433 19.3171 
704 1 4.54064 12.0914 14.2764 
5263 1 -0.207563 7.94 24.627 
2316 1 7.40078 9.03819 15.7155 
89 1 10.9075 7.99487 14.4351 
8068 1 8.35463 11.0761 14.3754 
2882 1 9.46538 9.2231 15.7379 
1892 1 9.9418 12.7927 18.101 
12965 1 18.5354 -0.992181 16.189 
2408 1 0.120478 10.2692 13.677 
10088 1 11.9812 9.9455 16.0289 
10578 1 13.6454 11.5585 15.4606 
8334 1 23.9668 15.0043 26.9716 
3077 1 2.58303 15.9467 16.3099 
8298 1 21.3879 -1.35963 20.3714 
5536 1 9.84668 11.5742 15.7904 
2916 1 15.2664 8.94452 15.6058 
3268 1 13.9245 13.6748 17.0979 
957 1 15.3505 6.009 15.1208 
13478 1 17.3449 7.35997 15.1574 
3263 1 15.3429 11.1307 14.0699 
12512 1 18.6013 8.26726 16.7352 
6790 1 17.9298 11.8963 13.9051 
2549 1 15.9646 12.7263 15.99 
5542 1 16.1128 8.62692 17.7199 
346 1 18.8143 9.4078 14.5989 
7180 1 20.4718 8.50109 14.3931 
5382 1 21.3181 10.2294 16.4345 
372 1 20.6721 11.7758 12.9921 
4998 1 19.6058 11.3048 15.5291 
12102 1 24.9181 13.0861 16.4567 
5301 1 23.238 9.73464 18.3513 
6109 1 22.0875 12.3857 15.006 
3074 1 25.6507 9.51614 14.9475 
597 1 25.8259 10.7698 25.2272 
12053 1 24.1976 10.813 15.9848 
12077 1 22.6738 12.0513 17.2924 
10673 1 25.3807 11.0128 18.3944 
5308 1 21.834 -1.27807 22.362 
3338 1 2.17552 13.6795 16.3822 
10811 1 1.0969 12.0481 14.2161 
2709 1 3.11078 13.855 13.6078 
723 1 26.8043 12.7386 18.3116 
6426 1 12.4839 -0.77617 15.7319 
3955 1 1.45608 16.9883 14.9475 
9521 1 26.1618 16.3528 13.7565 
497 1 8.65911 8.14059 13.7071 
864 1 4.38695 14.0426 15.3715 
6096 1 6.30287 15.4028 14.8588 
7616 1 15.6879 8.56094 12.9672 
2022 1 -0.970883 5.71679 25.0059 
3132 1 2.933 11.309 25.1792 
11567 1 11.3384 16.1384 15.5238 
186 1 0.92766 14.6271 14.4054 
737 1 -0.650175 2.80028 13.7264 
2474 1 4.59687 15.9596 13.1045 
4970 1 12.938 13.4463 15.0757 
11007 1 6.8062 17.3902 20.3294 
2753 1 16.3266 15.1901 17.0141 
678 1 4.13522 12.8883 27.0225 
1959 1 14.6785 0.574537 26.7253 
3178 1 16.0188 14.9058 14.3903 
1981 1 14.0376 6.80371 13.3183 
2805 1 13.5877 15.6249 14.7905 
7377 1 4.65992 17.4407 26.2174 
7397 1 7.16573 0.302429 25.6962 
5808 1 18.3843 14.0398 15.7233 
2813 1 20.563 13.2686 16.9161 
338 1 20.0877 13.5182 14.2666 
3830 1 20.2263 15.7263 16.4289 
361 1 -1.09532 12.97 13.5417 
942 1 0.334889 13.9533 22.0946 
11002 1 20.1803 16.914 18.7613 
3371 1 7.29785 3.51317 14.018 
7553 1 24.059 13.737 18.3795 
4031 1 22.68 14.5521 16.3415 
277 1 11.4315 14.8464 25.8866 
5750 1 22.8708 10.2341 14.0054 
2578 1 23.7797 15.8855 17.7788 
11785 1 -1.28793 14.9239 23.2239 
9500 1 2.00059 0.837267 20.1981 
6427 1 25.5966 5.12347 15.4227 
2170 1 1.3257 -1.22494 19.0119 
5834 1 2.71653 1.63186 22.772 
7740 1 -0.378195 0.376685 19.9347 
4939 1 5.664 1.75695 18.7402 
1086 1 26.964 9.49347 26.4272 
244 1 1.35374 5.30644 15.6451 
46 1 3.14385 2.90753 19.18 
1540 1 5.63757 2.76707 20.6573 
4786 1 6.92009 1.98703 23.2837 
992 1 5.21764 -0.0782878 22.3761 
6131 1 9.61174 -0.602022 18.7122 
7675 1 12.2458 1.95883 18.1859 
7549 1 7.00979 0.503976 21.3053 
3882 1 8.23827 2.57067 18.6972 
12107 1 9.2541 5.17233 21.3071 
7903 1 9.10738 -0.0787601 21.3677 
11446 1 13.3308 2.44296 20.632 
11289 1 11.1271 0.320756 20.2887 
7081 1 15.2069 0.576111 21.3189 
2785 1 11.42 2.37394 22.1712 
3400 1 12.1125 -0.82586 18.1027 
3647 1 11.0027 5.08762 23.268 
10030 1 18.3067 2.53447 20.591 
9279 1 15.8383 -0.0304741 18.8742 
5935 1 14.4627 2.02276 22.8616 
4216 1 16.3197 2.2869 20.0822 
5096 1 18.136 4.10382 22.761 
8617 1 16.8275 1.60391 22.5578 
5357 1 13.5949 -0.114795 19.6446 
6145 1 17.5598 0.113799 20.6744 
13017 1 21.321 1.43741 20.3999 
6550 1 19.4903 0.238416 19.4696 
11875 1 2.42035 17.1749 22.4141 
7954 1 19.6461 0.226535 21.8731 
1938 1 23.4503 2.37456 21.536 
12126 1 23.643 1.79116 18.638 
9928 1 7.53811 14.2885 12.9696 
549 1 8.3916 15.1188 18.9452 
1541 1 5.46634 -1.0743 26.3521 
7899 1 25.1117 1.57696 20.6259 
7688 1 23.0695 3.87609 19.4119 
7144 1 26.2043 15.1533 26.6095 
7531 1 26.8256 7.06539 25.6779 
1166 1 18.3513 15.1914 13.5369 
6903 1 4.23036 17.3309 14.7464 
3455 1 1.46441 4.56706 18.9761 
1033 1 -0.126516 3.06621 18.905 
5991 1 -0.645542 7.91846 17.7567 
3150 1 1.0093 8.35579 22.6161 
3986 1 -0.0451084 4.59173 21.2069 
8886 1 4.14176 6.00582 15.5744 
4484 1 4.72819 2.94629 16.7059 
2588 1 4.66239 2.96585 22.7123 
7259 1 6.31329 8.0026 21.5994 
573 1 4.92188 4.40933 19.0322 
3067 1 6.13284 7.6018 18.9386 
707 1 3.41781 4.19449 21.1509 
5835 1 6.8623 4.55556 18.278 
4957 1 7.46751 3.76689 20.7031 
2560 1 6.14449 5.55358 20.9683 
3606 1 9.21836 4.6189 18.9909 
1402 1 9.01065 6.99066 19.4003 
3026 1 11.4614 8.18693 18.8896 
5082 1 10.8319 2.76152 19.891 
11526 1 14.6753 4.38297 19.7157 
490 1 15.5049 6.27457 17.6318 
3711 1 11.6099 5.48438 20.1164 
804 1 13.4921 4.27321 23.9164 
3313 1 10.6079 7.46394 21.8836 
761 1 12.6349 6.48912 18.5259 
1983 1 17.6223 6.76041 19.8443 
12409 1 20.3602 3.61364 15.7168 
2151 1 13.2048 4.50913 21.8503 
908 1 18.8216 8.74113 19.7604 
12332 1 17.284 4.62967 20.6752 
5878 1 14.547 6.66647 20.5956 
5579 1 19.4631 5.90326 22.6329 
985 1 19.321 6.6807 18.3938 
10386 1 17.3329 4.13161 18.8236 
1693 1 22.2389 5.48931 20.9559 
12882 1 19.556 4.56572 19.8109 
7879 1 24.7694 7.5012 21.2633 
547 1 21.785 8.02347 22.728 
8112 1 25.7239 3.8776 19.1 
822 1 25.1782 8.40311 18.799 
7307 1 26.2877 6.09705 20.7934 
7355 1 26.6277 6.90951 23.3456 
12435 1 20.7414 -0.00705311 26.2678 
1399 1 23.1197 4.24341 22.7506 
8945 1 25.6863 1.44675 26.9034 
562 1 23.9555 6.19901 19.0913 
7372 1 24.9087 4.56486 21.3914 
6416 1 3.44064 7.42314 22.052 
327 1 17.3796 -0.279135 26.621 
260 1 0.745471 9.20594 19.2543 
1725 1 1.95944 13.4395 19.0022 
199 1 0.631356 11.7999 20.0622 
11032 1 -0.61511 10.6343 22.2159 
6936 1 19.437 15.678 23.6078 
2268 1 4.07728 12.6164 17.715 
7051 1 4.3244 6.51973 20.1228 
1070 1 6.22598 6.63213 17.0303 
11029 1 1.95318 10.1676 21.5043 
6727 1 2.89952 11.2851 19.5827 
6230 1 6.26463 9.69134 19.9764 
695 1 5.96132 12.5574 21.9274 
760 1 4.07046 9.0029 20.2686 
5680 1 10.705 11.9361 21.9935 
4261 1 8.02314 11.4696 16.7221 
2906 1 10.8409 9.74756 20.436 
204 1 8.26778 11.1205 20.5544 
7893 1 13.2707 10.4193 20.7204 
3347 1 12.0717 13.178 18.539 
10110 1 13.5685 7.91026 17.0944 
939 1 10.9809 13.6396 20.396 
2224 1 11.7097 11.8719 16.9223 
6520 1 12.3389 10.1023 18.3416 
12840 1 13.9276 11.8962 19.3926 
5031 1 11.5908 14.5269 16.7083 
4458 1 13.4561 13.4593 21.2597 
3194 1 16.7734 12.7399 18.1748 
553 1 14.3007 10.8887 17.2443 
715 1 16.5625 10.5128 19.3634 
10226 1 16.4859 8.74379 20.3819 
2875 1 13.9178 16.6344 17.3063 
1830 1 17.7157 12.3554 20.2292 
766 1 16.9566 10.2254 15.9556 
5565 1 17.5708 12.1405 22.8626 
8738 1 14.4184 9.23083 18.9443 
1247 1 18.3736 10.2711 21.3704 
1164 1 18.8624 11.1913 18.2835 
4678 1 19.2521 14.1053 18.7737 
581 1 20.3698 7.06983 20.7331 
3627 1 20.7171 9.84036 20.6289 
4365 1 19.316 8.24567 22.1739 
941 1 24.1753 10.0226 20.7966 
3080 1 22.6732 11.5388 21.6978 
5396 1 26.1823 9.22239 23.3591 
4538 1 17.5577 14.2753 24.3565 
7682 1 11.0091 12.3196 13.387 
6149 1 22.545 7.98821 19.9664 
10144 1 0.44303 15.4655 17.3614 
756 1 2.98275 15.1298 21.6781 
7078 1 -0.544567 13.4163 18.3091 
12227 1 0.413047 14.9035 19.7063 
918 1 26.344 0.379714 19.4243 
8420 1 24.2879 2.89898 26.1819 
10921 1 2.3317 16.7834 19.8977 
1701 1 8.48195 17.0395 23.7476 
1096 1 5.24897 16.0274 20.1184 
6974 1 6.38752 15.1079 22.7549 
3474 1 4.55741 13.532 20.1534 
7609 1 6.59991 13.539 19.7941 
6302 1 3.366 15.0714 18.4913 
10084 1 5.83775 14.3354 17.6936 
2351 1 11.5428 14.9662 21.8183 
1044 1 21.623 14.6991 23.0027 
1079 1 9.29 15.258 16.5999 
2622 1 8.66453 13.2428 20.2252 
1325 1 5.12606 16.1958 16.5763 
10975 1 9.50583 13.5167 14.4783 
458 1 26.8306 11.9864 13.9334 
12577 1 15.2842 12.83 23.3433 
4111 1 12.3924 16.8717 20.6006 
8371 1 -0.526727 0.429521 17.6228 
10129 1 24.6522 15.9794 15.9324 
6854 1 14.9781 13.9544 19.0157 
1608 1 18.3978 16.0446 17.9961 
11941 1 17.8454 16.4217 15.0849 
6080 1 17.988 16.1242 25.6503 
3014 1 16.7947 16.3452 22.4277 
3301 1 17.0351 16.8872 19.5109 
10812 1 18.3185 6.68276 27.0816 
9868 1 18.6296 16.5715 20.5813 
2755 1 22.4046 13.3847 20.105 
5444 1 20.851 16.2458 21.2222 
2601 1 16.8146 14.5203 19.7802 
668 1 20.168 12.1411 21.4463 
3839 1 24.1308 13.8799 21.8295 
1304 1 7.88579 10.1635 24.7016 
6437 1 5.27063 0.963232 12.9384 
2707 1 24.0041 15.0911 20.167 
5034 1 23.7532 16.3686 23.5617 
12013 1 25.6264 16.8419 18.9577 
6717 1 21.7911 14.9547 19.0668 
2309 1 22.1131 17.0397 16.5065 
7568 1 25.3809 16.1365 21.7015 
8260 1 26.7646 3.29153 24.9638 