ITEM: TIMESTEP
870000
ITEM: NUMBER OF ATOMS
13500
ITEM: BOX BOUNDS pp pp pp
-4.8580512597705550e-01 5.4710805125973380e+01
-4.8580512597705550e-01 5.4710805125973380e+01
-4.8580512597705550e-01 5.4710805125973380e+01
ITEM: ATOMS id type x y z 
6506 1 3.6061 2.95551 1.60333 
11193 1 1.82224 1.39837 2.48724 
2906 1 3.37496 0.749749 0.618118 
2490 1 0.642085 0.809106 0.0852792 
8769 1 0.737221 3.33633 0.96971 
405 1 1.96951 3.64102 3.55386 
7743 1 4.04602 1.55352 3.62007 
5658 1 5.91657 1.91832 0.957479 
551 1 8.2529 0.952968 1.08808 
5871 1 7.02545 1.37933 3.29297 
4657 1 5.54762 3.33849 3.16694 
6169 1 7.69993 3.77132 1.81656 
846 1 5.01094 -0.31916 2.34478 
516 1 9.37071 2.53024 3.11865 
10195 1 9.15876 0.059918 3.60172 
1160 1 9.79879 2.83045 0.483171 
11486 1 11.5851 3.1287 2.29519 
2346 1 10.7319 0.823283 1.83823 
802 1 12.5966 1.85957 0.236663 
12802 1 13.2028 1.06011 2.86362 
369 1 22.5799 7.02704 0.0605337 
2359 1 15.7818 -0.0513563 2.49966 
4748 1 15.0982 2.23711 1.67641 
11192 1 17.1436 2.13371 3.13043 
1880 1 14.3492 0.0614315 0.545559 
5319 1 16.6935 0.824279 0.0374954 
263 1 13.8552 3.55316 3.45316 
451 1 5.81388 17.8326 3.68032 
4074 1 18.0321 3.22535 0.6474 
4344 1 18.1708 0.0826625 2.0021 
10854 1 19.5113 2.09821 2.63327 
9214 1 20.6622 2.44213 0.523342 
4179 1 22.2615 1.52552 2.53085 
7469 1 20.3722 -0.30153 3.29513 
1005 1 22.0266 3.95716 1.99898 
2549 1 20.3683 -0.0489899 1.06266 
4036 1 22.523 0.305497 -0.0051349 
10706 1 23.4606 2.59261 0.344855 
2369 1 24.5137 0.361829 1.75363 
7482 1 25.9036 3.75965 0.70788 
3194 1 24.1952 3.19516 2.62974 
10090 1 26.2343 2.46353 3.21528 
5381 1 26.598 -0.0171741 2.8275 
4322 1 2.25294 7.48326 0.876593 
10352 1 2.45355 7.12355 3.44436 
10746 1 0.92282 5.74087 2.07154 
4695 1 3.03221 5.04367 0.695096 
7610 1 0.187035 7.94098 3.87144 
7111 1 3.88444 5.04557 3.15613 
2705 1 -0.269223 7.59925 0.831848 
10337 1 4.74053 6.88513 1.79099 
10324 1 5.42963 4.49069 0.887039 
6534 1 6.61314 5.76096 2.97753 
9477 1 6.87358 6.20037 0.291329 
2308 1 6.48398 8.5303 2.97387 
5769 1 8.60714 7.84034 -0.337665 
4340 1 26.8297 5.92909 1.00657 
12473 1 8.58211 7.24401 2.15753 
9396 1 9.03161 5.4818 0.341518 
10040 1 12.2354 5.49776 2.56273 
2518 1 9.86692 4.88417 2.46906 
4295 1 10.7375 7.17684 1.05072 
3556 1 12.9393 8.07223 2.54772 
10932 1 11.3295 4.66769 0.127946 
2447 1 10.8614 7.09217 3.90102 
12453 1 13.0199 6.7969 0.101929 
5450 1 15.8659 4.3812 2.11049 
4544 1 13.6331 4.19753 1.18788 
843 1 14.723 5.9831 3.25099 
11650 1 15.347 7.57415 1.41321 
5835 1 17.1313 6.22167 4.15991 
3087 1 17.4784 5.72792 1.08059 
10187 1 15.2708 5.96948 -0.409207 
12490 1 24.7807 15.2327 8.63655 
3501 1 17.5851 8.04781 2.31037 
7978 1 18.242 4.41052 3.05183 
10214 1 20.4809 4.16075 3.76704 
6655 1 21.7964 6.34119 2.20602 
6741 1 19.8887 4.92785 1.11572 
280 1 19.7002 7.59848 0.898627 
9287 1 19.3888 6.4347 3.31292 
50 1 26.8885 15.7276 -0.194946 
8063 1 23.5552 5.51618 3.67573 
6538 1 25.8386 5.25177 3.2932 
11986 1 23.9807 5.11767 0.934371 
1763 1 24.5615 7.25146 1.92597 
8757 1 26.2679 8.48592 0.898844 
990 1 1.70374 9.30862 2.15739 
13214 1 2.88186 11.2542 2.93013 
11091 1 0.571863 11.4547 1.63198 
8965 1 3.82176 9.19705 0.196156 
2450 1 2.83911 11.3769 0.598105 
463 1 0.947088 12.868 3.87182 
13124 1 1.18413 9.49684 -0.158485 
9827 1 3.71478 13.2666 3.94969 
2150 1 6.22118 8.55166 0.300834 
13377 1 4.09924 8.95443 2.87864 
47 1 4.47341 13.0398 1.40049 
12706 1 5.51851 10.7014 1.79575 
3055 1 8.24487 9.78653 1.50246 
4914 1 7.37902 10.8629 3.74252 
9703 1 6.22387 13.0414 3.49365 
8578 1 6.95998 12.1058 0.414215 
8 1 8.44096 12.4459 2.08546 
3933 1 8.66257 8.78105 3.9487 
168 1 10.4573 9.20772 2.45025 
3711 1 12.4228 9.54207 0.720656 
2631 1 10.5356 11.3722 1.26744 
1816 1 12.4652 10.7949 2.66916 
11318 1 12.5451 12.7688 0.854888 
10138 1 9.97433 11.3821 3.8239 
8245 1 11.5388 13.281 2.84796 
524 1 26.8387 6.81033 7.93512 
2273 1 16.9176 10.4121 3.27588 
2096 1 14.1712 12.3902 2.99686 
11163 1 16.7144 9.92814 0.645608 
6650 1 14.7846 9.80532 2.02967 
8470 1 16.4046 12.0717 1.75321 
202 1 14.2792 11.058 0.154354 
5950 1 20.3498 8.52856 3.25218 
615 1 21.2875 9.33069 0.823304 
3794 1 18.8919 10.1611 1.77845 
5444 1 20.9626 11.3088 2.94506 
682 1 20.5259 11.5862 0.534358 
10385 1 24.9534 15.4871 11.8163 
12117 1 18.9013 12.8084 1.99844 
1173 1 26.2282 16.9281 10.0612 
7780 1 23.046 14.7763 10.5825 
9989 1 22.8702 9.35512 2.71502 
7148 1 23.1934 11.2275 1.16738 
12950 1 25.1305 9.75849 2.59546 
1273 1 25.6666 12.3345 2.68486 
10939 1 25.6723 10.9319 0.304708 
6779 1 23.935 8.96903 0.286562 
8588 1 23.1859 11.9609 3.77348 
1335 1 2.2588 13.6188 1.58622 
13478 1 1.93199 16.5648 1.20816 
247 1 2.29112 15.118 3.43863 
8708 1 0.990476 17.3407 3.62512 
10973 1 0.375863 13.7449 0.161613 
9768 1 16.8332 4.67125 13.1194 
5051 1 18.6844 16.0828 10.4624 
6624 1 -0.191949 15.8179 2.1635 
8398 1 3.98767 15.3842 0.592387 
7041 1 4.92703 15.3117 3.15725 
6115 1 6.77001 14.4422 1.35745 
373 1 8.52824 16.0287 1.10454 
3251 1 6.11851 16.7757 1.51535 
2875 1 7.27235 15.6634 3.60682 
1415 1 -0.351808 5.1508 6.80818 
11730 1 9.26325 14.3923 3.13299 
12457 1 9.42853 17.0911 3.22747 
10984 1 10.1898 13.9564 0.864973 
8500 1 11.2332 15.9741 1.58615 
4465 1 11.4409 15.6588 3.90236 
2525 1 12.6591 15.1116 -0.237824 
9814 1 1.8188 -0.292443 9.56886 
803 1 0.49437 -0.389213 4.02798 
4717 1 14.7588 13.6859 0.570281 
472 1 13.6559 14.9463 2.54003 
4170 1 13.83 17.0101 1.12216 
8776 1 16.2637 14.2173 2.5091 
2357 1 15.9462 15.8881 0.79886 
4115 1 17.3786 13.9099 0.402091 
507 1 15.9058 16.8013 3.41251 
958 1 18.2808 15.6116 1.91554 
238 1 17.5553 15.1134 4.42559 
4481 1 -0.161614 12.5743 10.6486 
2752 1 22.1054 15.1929 0.213988 
6702 1 20.7026 15.5649 2.183 
2873 1 19.8551 16.8272 0.493557 
11540 1 19.9994 14.1273 0.0567315 
2512 1 21.5245 17.5888 3.43858 
8914 1 22.3379 17.5083 1.04949 
12772 1 21.827 13.3691 1.9893 
12695 1 26.637 13.2353 0.0770453 
1215 1 24.1673 13.2991 1.00757 
6112 1 23.317 15.4672 2.36455 
1881 1 24.577 16.6885 0.452383 
1704 1 26.0296 14.9286 2.02711 
9204 1 26.6647 17.4977 1.81178 
8990 1 25.6429 16.4062 3.73404 
412 1 24.4209 14.1859 4.01042 
2539 1 10.4191 0.475545 -0.443814 
8104 1 -0.11153 2.31704 4.28183 
4131 1 3.67323 3.35135 5.42082 
11125 1 1.98608 1.44397 5.12461 
3031 1 2.48397 2.22758 7.71154 
5962 1 1.00842 3.8386 8.47148 
12592 1 -0.0138066 2.38482 6.71914 
5817 1 1.85632 -0.166809 7.12388 
13322 1 1.48079 4.07064 6.01102 
1058 1 4.15389 0.803259 6.24975 
4864 1 5.04629 2.71957 7.66991 
13076 1 6.25945 0.482384 7.4001 
5829 1 6.02423 2.30477 5.51041 
6715 1 7.65186 2.94877 7.61291 
5222 1 7.69015 3.85022 4.35284 
9567 1 12.0377 17.6287 -0.222798 
24 1 8.66133 1.65873 5.35165 
7006 1 8.89877 0.552919 7.65066 
4764 1 11.3269 1.46491 4.3576 
2715 1 12.9414 2.50913 5.47876 
5193 1 10.7409 2.11392 6.97317 
555 1 12.3724 -0.148191 7.22593 
5483 1 13.0281 2.32305 8.06884 
5344 1 9.50186 3.95002 6.01201 
2101 1 10.9635 4.08627 4.55633 
12350 1 10.2628 -0.285899 5.78859 
5055 1 15.1792 1.79248 4.4511 
1435 1 13.3352 -0.130705 4.98281 
5382 1 14.7993 1.17262 6.63761 
4357 1 16.9417 2.2136 6.66841 
8829 1 16.3779 0.309124 8.53822 
12948 1 14.5938 3.85148 6.73133 
269 1 13.2686 6.68066 13.1071 
8070 1 16.0485 4.03823 4.63956 
4813 1 15.9855 -0.423848 4.87809 
12267 1 18.4908 0.905558 4.64555 
354 1 20.7169 1.73077 4.68556 
569 1 19.4493 1.61709 7.10405 
4130 1 20.8803 3.68629 6.24922 
3074 1 21.2262 3.08916 8.44106 
5579 1 18.5056 3.30598 5.18022 
6419 1 21.5579 0.438808 8.40272 
12462 1 22.8183 2.59393 13.219 
9699 1 18.927 3.87577 7.76075 
3650 1 24.7526 -0.353302 5.81414 
4105 1 22.4719 -0.304098 4.53787 
3050 1 22.6299 1.58962 6.36235 
7123 1 26.2597 0.207481 7.8047 
7541 1 24.249 1.36298 4.34374 
3768 1 22.7499 3.35785 4.68708 
8017 1 24.9808 2.17034 6.96567 
583 1 25.1256 3.76256 5.03626 
6756 1 24.072 0.307939 8.42346 
7997 1 16.4599 2.17266 13.2276 
13145 1 3.51137 4.57405 7.68825 
7124 1 0.43257 5.45659 4.41564 
7487 1 3.03991 5.94031 5.62161 
10823 1 1.59153 6.14113 8.28858 
9232 1 3.16487 7.89782 7.31734 
6832 1 1.11603 7.26641 6.08081 
6976 1 0.324475 8.08424 8.41453 
7892 1 26.7283 1.27127 5.45457 
6926 1 4.78952 7.163 4.30465 
3599 1 7.07151 7.24826 5.119 
255 1 5.72042 4.9842 5.48184 
5322 1 5.9501 4.73371 7.99165 
4253 1 5.38581 6.98911 6.88427 
9091 1 7.92835 5.81843 6.90509 
7061 1 7.24967 8.35241 7.57648 
8209 1 11.9504 4.30969 7.27966 
12540 1 8.86825 5.97131 4.58761 
4461 1 9.27335 7.99718 6.08745 
662 1 10.6871 6.06782 6.5679 
727 1 12.9994 5.26245 5.06187 
3184 1 11.5289 8.33262 7.34087 
8233 1 9.5735 4.55195 8.60848 
5978 1 9.42404 7.4562 8.56101 
5516 1 13.0818 7.88241 5.09959 
10088 1 15.6444 8.32835 4.2441 
3790 1 13.2463 6.45423 7.27511 
5355 1 16.9217 4.80731 6.81765 
12810 1 17.4096 7.46785 6.32336 
7472 1 15.1754 6.20639 5.60899 
4891 1 15.6172 6.72676 8.12765 
2851 1 13.687 8.60853 8.39284 
12488 1 15.0477 8.77518 6.56296 
12271 1 22.5811 7.79489 4.41265 
7071 1 18.2781 6.18841 8.48632 
2916 1 19.1499 5.76936 5.86705 
6808 1 21.6219 5.73622 5.36419 
1 1 20.6713 5.69656 7.94075 
3515 1 20.2438 7.90773 5.66913 
13348 1 19.5003 8.11472 8.04422 
5174 1 22.2299 7.31047 6.98771 
1458 1 18.3147 8.68855 4.46277 
4902 1 16.7973 -0.234977 12.6742 
7600 1 25.0585 7.77966 4.05628 
34 1 23.1193 4.52835 7.17511 
2620 1 26.6752 6.05243 5.42241 
5936 1 24.3073 6.15721 5.81352 
4020 1 25.5472 8.20466 6.48218 
298 1 25.9015 4.5848 7.29281 
12640 1 24.2657 6.78086 8.37729 
10167 1 3.3547 8.97728 5.17171 
13312 1 1.03088 10.1533 4.20997 
5976 1 0.250672 11.6216 6.20563 
10293 1 1.42052 9.67898 6.57872 
11115 1 2.5736 11.647 5.55629 
6500 1 2.16446 12.1687 7.82451 
6587 1 0.0588189 13.4754 8.39831 
10921 1 0.168934 10.9037 8.53466 
8270 1 3.90527 13.2078 6.88254 
4799 1 4.89768 11.0033 4.16713 
3289 1 4.27276 10.4195 6.98895 
8419 1 6.82085 10.6692 8.06734 
8957 1 6.00669 9.13642 5.57755 
12747 1 6.0886 11.706 5.9915 
6886 1 8.50427 12.4463 7.19946 
8603 1 8.40926 10.2754 5.88342 
12556 1 6.02433 13.3729 8.03225 
10975 1 8.06478 13.0059 4.8564 
6895 1 11.3196 9.37914 4.95609 
2578 1 10.5284 11.3317 6.56035 
8626 1 12.34 12.9281 7.26144 
7736 1 12.3657 11.8134 4.91466 
10488 1 9.43174 9.97791 8.16401 
13132 1 12.9205 10.2621 6.60214 
10221 1 16.7789 12.7593 4.61073 
8368 1 16.9264 9.08927 8.03967 
881 1 14.3318 10.3059 4.64817 
3386 1 16.762 10.4005 5.82511 
3145 1 14.6637 12.4069 6.02272 
5750 1 16.6094 11.9355 7.97554 
2142 1 14.3203 10.9657 8.25845 
199 1 14.6677 13.2528 8.45293 
4381 1 18.9657 11.2066 4.37985 
17 1 19.0011 10.0532 6.49981 
4109 1 21.4178 9.61143 7.23069 
5665 1 18.6571 12.6294 6.38455 
2996 1 21.1341 12.4093 5.38314 
8651 1 20.6781 11.8699 8.07904 
3647 1 21.561 9.93623 4.87212 
2199 1 26.6941 9.69819 4.71958 
3056 1 23.8042 9.19294 7.68022 
11226 1 24.1427 9.99943 5.07258 
10162 1 25.6052 12.2551 5.17587 
11619 1 23.3743 11.6374 6.744 
852 1 25.6596 10.7263 7.01151 
7755 1 25.2555 13.1256 7.40197 
9736 1 3.45215 17.3637 4.22448 
2255 1 -0.15564 15.2531 4.35565 
3801 1 1.58574 13.8601 5.89903 
5712 1 1.59298 16.3104 5.62823 
1748 1 2.12399 15.055 7.94703 
12311 1 3.73078 15.2065 5.39444 
4395 1 3.65203 17.2862 6.83826 
11055 1 -0.251142 17.6725 5.89369 
1563 1 1.2922 17.8415 7.83722 
602 1 -0.114956 15.4089 7.08274 
6525 1 5.79128 14.1712 5.53726 
6681 1 5.7429 16.5853 5.6475 
32 1 5.15102 15.4117 7.70235 
8814 1 7.66306 15.1024 6.82467 
2818 1 7.30135 17.59 7.51956 
5830 1 8.01897 17.8769 5.06913 
8704 1 10.4805 13.6047 5.33912 
4710 1 9.32954 15.6435 5.40159 
279 1 12.8045 14.0525 4.96951 
977 1 9.65964 17.1412 7.21161 
5016 1 10.0982 14.4258 7.61961 
10878 1 11.6952 15.8649 6.36133 
12325 1 13.3496 17.4779 7.34231 
9764 1 2.8654 -0.472937 3.83836 
11056 1 12.6309 15.1511 8.74284 
4570 1 13.6019 16.5868 4.72169 
13323 1 16.6171 14.264 7.00972 
4005 1 15.1254 14.6964 4.75389 
1292 1 13.9384 14.8573 6.72292 
3029 1 16.0221 16.394 6.18136 
12343 1 17.4914 16.7612 8.32036 
404 1 15.08 15.8487 8.46883 
9790 1 17.2768 7.70947 -0.280662 
2954 1 19.8327 16.3109 4.29061 
53 1 19.5842 13.7472 4.38242 
2214 1 18.6798 15.6098 6.37728 
1363 1 20.7483 14.0573 7.01135 
11698 1 21.8708 14.6046 4.35619 
7171 1 21.3264 16.8389 6.18294 
3126 1 19.9882 16.1398 8.28699 
770 1 22.4616 15.7503 8.443 
12361 1 18.4673 13.6726 8.74256 
293 1 26.9238 14.5185 8.53715 
772 1 27.0247 14.1335 4.42818 
3839 1 23.2347 14.4152 6.4558 
3308 1 26.5774 17.0759 7.5396 
1428 1 25.4738 15.3508 6.24587 
4446 1 24.0244 17.4336 7.37565 
4282 1 23.3359 16.3786 4.79766 
11038 1 15.7225 3.72051 -0.307421 
4911 1 22.7393 16.9033 12.6013 
222 1 0.298616 1.25921 8.81077 
12905 1 0.374045 1.03594 11.5531 
1278 1 2.11072 2.55641 10.0441 
6449 1 2.83772 1.02434 11.7785 
2315 1 0.118918 3.78574 10.893 
13332 1 3.1727 3.56156 12.0583 
1001 1 4.1437 1.13751 9.17866 
2107 1 4.60632 3.49106 9.95205 
13172 1 6.77015 1.74788 9.55075 
9065 1 5.2713 1.32882 11.5147 
11403 1 7.76071 2.57714 11.7898 
8084 1 7.73275 0.311059 11.4859 
3724 1 5.38222 3.36757 13.004 
9385 1 7.38463 4.28483 9.91565 
6563 1 9.22799 2.27899 9.5221 
5196 1 11.484 3.27444 9.62581 
5694 1 11.3077 0.810495 9.26627 
2645 1 10.1688 1.58957 11.4749 
6899 1 12.1668 2.75858 12.4214 
2835 1 12.0777 0.0206855 11.6965 
10900 1 10.1065 4.23339 11.332 
6039 1 13.9815 0.432436 8.96368 
11228 1 5.67022 -0.393232 4.79424 
12400 1 15.345 2.56525 8.65637 
502 1 13.5559 2.1907 10.5508 
4689 1 15.9977 1.39772 10.7819 
6857 1 15.4641 3.78926 11.086 
2868 1 14.1428 1.51916 12.8801 
5635 1 17.7824 3.34137 11.2317 
7207 1 18.8418 -0.201672 8.83461 
11446 1 17.7897 2.01381 9.21878 
3135 1 18.4889 1.07979 11.4981 
665 1 20.0118 2.93932 12.4841 
9731 1 20.1572 1.77429 10.1061 
3012 1 20.9463 0.803202 12.2585 
6142 1 22.0642 2.9625 10.8318 
5758 1 18.8557 13.9523 11.5628 
6866 1 17.9192 12.3753 13.1173 
6937 1 23.3792 2.59102 8.80516 
11233 1 22.8628 0.545847 10.8567 
1366 1 24.5974 2.2796 11.3851 
8630 1 25.964 2.09461 9.40215 
12139 1 25.3934 0.0497173 10.4472 
11000 1 1.29868 5.16492 12.8096 
124 1 3.27759 6.25076 12.0288 
7637 1 0.773277 6.85367 10.7718 
12531 1 2.41523 4.94547 10.21 
1958 1 2.7684 7.89098 9.96187 
5173 1 1.74606 8.26775 12.5011 
2887 1 4.30455 6.37009 9.19052 
4857 1 5.60601 5.53775 11.1795 
10958 1 7.37286 5.0267 12.6658 
11792 1 5.17279 8.01293 11.318 
4804 1 6.73117 6.72021 9.34247 
6748 1 7.49295 7.52128 12.243 
12221 1 5.04868 8.87103 9.05608 
1764 1 7.80816 9.02566 10.1164 
8229 1 27.0321 1.48913 11.8666 
12687 1 8.86891 6.23461 10.6801 
1108 1 11.6101 5.93794 9.13369 
1513 1 11.258 8.32687 9.75039 
9157 1 11.1785 6.58265 11.5588 
6639 1 9.6902 8.29207 11.9441 
3235 1 12.9917 4.87232 11.2928 
11441 1 20.7461 14.0345 9.74977 
975 1 25.1855 13.2673 10.1446 
7738 1 16.8207 4.40634 9.2248 
928 1 13.4751 7.16976 10.3923 
3 1 13.968 4.6936 9.03712 
2890 1 15.728 7.93628 10.1458 
5339 1 15.3092 6.11068 11.6943 
10716 1 17.6118 5.97828 11.0759 
81 1 16.9906 8.44776 12.2857 
3882 1 14.7307 8.54818 12.4959 
9547 1 5.13907 17.7595 8.64853 
12940 1 20.3247 -0.394414 6.11752 
1774 1 19.7603 4.35463 10.1011 
1820 1 22.3223 7.95093 9.34686 
6035 1 18.0592 8.40614 10.0131 
4842 1 20.0994 6.69012 10.2717 
12933 1 21.7726 7.65274 11.8738 
9122 1 19.1831 5.25485 12.6443 
12622 1 21.4506 5.21856 11.8708 
4046 1 19.3812 7.92238 12.3916 
1588 1 22.3297 5.19228 9.6227 
8601 1 26.366 3.92694 11.4685 
9327 1 24.6608 4.30555 9.55365 
12327 1 23.9007 4.44931 12.1628 
4368 1 23.7998 6.59715 11.0839 
2931 1 26.251 6.44094 10.1554 
7943 1 25.964 8.33134 11.9774 
4049 1 27.0538 11.9312 8.63671 
10499 1 2.52192 9.97572 8.80376 
8378 1 0.66743 10.431 12.6946 
3355 1 2.04481 11.6306 10.4389 
11205 1 0.780939 9.3505 10.4286 
11035 1 3.53379 9.9933 11.4573 
10254 1 1.53219 12.7979 12.7257 
8511 1 3.94613 12.4619 11.7337 
9524 1 4.40291 11.4634 9.1707 
12656 1 7.06886 12.2567 12.7584 
12070 1 5.9515 10.5066 11.0772 
3722 1 8.10608 10.1497 12.4614 
10539 1 7.97098 11.6236 10.058 
12394 1 6.04294 12.9996 10.5468 
4459 1 23.7027 17.4037 9.90261 
336 1 17.7611 17.7952 5.16697 
11884 1 11.8491 10.6371 8.8855 
1247 1 12.0427 8.88339 12.1635 
4331 1 10.2555 12.4154 9.10657 
1547 1 9.44466 12.5538 11.9753 
2882 1 10.0232 10.2627 10.7034 
2251 1 11.9753 11.7262 11.3894 
4155 1 12.5063 13.1732 9.6438 
1856 1 13.5385 9.81322 10.4915 
4422 1 14.6258 12.1103 10.7422 
2219 1 16.1746 10.2278 10.2296 
7113 1 17.3095 12.3931 10.6436 
1047 1 16.0743 10.9144 12.6837 
688 1 13.4502 10.9688 13.0225 
4886 1 14.4657 -0.422052 11.1824 
8906 1 20.4789 11.8262 13.0261 
2329 1 18.4215 10.7155 9.06832 
8641 1 18.5724 10.3476 11.5599 
3537 1 20.0683 11.917 10.5676 
5241 1 20.3464 9.31395 10.0907 
7831 1 21.9174 10.0555 11.6705 
3830 1 22.3912 10.5576 9.4242 
224 1 22.2648 12.5061 11.0004 
38 1 23.8136 8.83836 13.0781 
8051 1 22.8321 13.0909 8.5013 
7646 1 24.2103 8.9202 10.456 
12502 1 26.325 9.14115 8.78897 
12363 1 26.6915 10.6053 10.9087 
8980 1 24.686 11.2255 9.06637 
9912 1 26.2189 12.7688 12.2184 
2595 1 24.2157 11.2099 11.4328 
7771 1 18.1015 11.6482 -0.319854 
8992 1 2.27454 16.9752 11.7883 
2642 1 0.450792 16.4224 9.59904 
12387 1 1.51336 14.3325 10.5055 
9803 1 3.24392 16.3352 9.47737 
339 1 3.74545 14.8354 11.6284 
11254 1 3.77659 13.8555 9.38156 
3247 1 23.8903 13.2776 12.6724 
9420 1 20.1299 16.3665 12.5289 
7745 1 4.63843 17.6122 11.1995 
5687 1 5.67173 14.4007 12.7705 
6152 1 7.99906 13.9334 9.32793 
4967 1 7.98963 14.6789 11.655 
5650 1 6.56498 16.5938 12.2967 
3121 1 5.82714 15.4224 10.0252 
1090 1 8.30253 16.1866 9.07524 
239 1 12.19 15.8727 11.2835 
9058 1 10.2035 14.7493 10.1934 
1848 1 10.2642 14.9166 12.6477 
5632 1 11.1733 17.1912 9.44152 
7014 1 9.25219 16.7659 11.3232 
2132 1 17.6836 -0.354579 6.57109 
420 1 13.3437 13.6827 12.3689 
4802 1 15.9228 13.8677 12.1639 
4529 1 17.3893 15.8333 12.8096 
5812 1 14.7436 16.2314 12.3083 
874 1 16.2637 16.9878 10.563 
2863 1 16.6747 14.5268 9.7497 
3577 1 13.7614 17.0829 9.93169 
8646 1 14.3033 14.7143 10.4922 
2120 1 21.2589 16.4887 10.43 
8570 1 21.512 14.4192 12.3355 
10231 1 18.5905 17.8766 2.66514 
857 1 10.8445 10.0947 13.2949 
3642 1 1.6014 15.0691 13.2912 
9152 1 25.5498 5.96786 13.2684 
11915 1 14.4891 4.1317 13.2523 
7619 1 1.03422 5.53717 -0.467142 
411 1 21.9153 4.57215 -0.431326 
11416 1 1.12679 1.75756 15.5526 
8115 1 3.15586 0.358988 16.0404 
2128 1 3.02344 2.94454 16.8201 
2621 1 0.687228 3.22396 17.6503 
3734 1 3.45569 2.08369 14.1744 
7430 1 1.61533 0.0777845 13.8209 
7165 1 1.39493 0.596166 17.6829 
8589 1 14.5659 0.596777 26.8637 
11845 1 5.34043 2.49817 15.7387 
9621 1 7.36528 3.12839 17.1732 
4880 1 7.40203 2.99329 14.4005 
2178 1 7.80025 0.855559 15.9731 
9102 1 5.54994 0.147456 15.7608 
9687 1 6.85242 0.284803 17.9154 
5161 1 6.25647 0.980385 13.7556 
12409 1 9.56073 2.50211 15.7893 
3709 1 12.212 2.87652 14.9817 
6187 1 11.3796 0.960747 16.813 
8614 1 11.4446 0.654884 13.8334 
2231 1 11.0757 3.35791 17.7068 
11720 1 20.5687 -0.344501 22.5605 
13013 1 8.81661 1.18088 13.7255 
1225 1 13.2777 0.450946 15.4911 
13314 1 13.3691 2.48165 17.3404 
6887 1 14.8495 2.71816 15.2051 
177 1 17.1545 2.20158 15.7795 
6433 1 15.2079 0.743776 16.9448 
8420 1 15.8394 0.122184 14.7731 
7064 1 15.4746 3.38342 17.5828 
8901 1 17.7078 -0.118593 16.4754 
7956 1 -0.400485 10.9979 22.4697 
5708 1 18.7953 0.834943 14.1205 
9427 1 21.3327 1.37014 14.8097 
3855 1 19.6746 2.22421 16.3425 
6704 1 21.8866 0.938635 17.0882 
9804 1 18.1265 3.83985 17.3777 
9171 1 22.3653 3.05769 16.523 
1888 1 18.7918 4.11438 14.705 
7253 1 26.2703 14.3921 22.4814 
1339 1 21.2447 4.08856 14.3868 
8068 1 24.0351 1.35158 15.1882 
6498 1 24.8208 3.20205 16.7079 
5090 1 24.3708 0.747562 17.2474 
7880 1 26.3028 -0.158937 15.7924 
8298 1 15.4478 -0.226557 22.6138 
689 1 5.09998 10.8995 13.3659 
3763 1 2.45204 -0.401381 21.7299 
3003 1 -0.293938 10.1745 19.5333 
5746 1 3.69642 4.50999 14.5127 
2224 1 1.23397 4.55848 15.1588 
104 1 2.85831 5.52932 16.7014 
333 1 0.683416 7.05946 16.4048 
7620 1 2.73306 8.08338 16.8105 
2338 1 2.58458 6.7034 14.472 
4670 1 0.117531 6.99176 14.0175 
2437 1 4.93705 4.36163 17.266 
1010 1 6.05392 4.76095 15.0336 
12158 1 7.19391 6.01236 17.0263 
12906 1 6.77814 8.3927 16.3437 
13391 1 4.76502 6.94995 15.7957 
12548 1 7.39212 6.7916 14.6418 
9483 1 8.60246 4.91151 15.3686 
211 1 8.73341 8.85203 14.4445 
2333 1 6.17993 8.77673 13.9274 
7950 1 9.18197 4.70764 17.9047 
5761 1 9.39802 7.2028 16.3041 
11661 1 10.946 4.96466 15.9054 
9665 1 12.3085 7.14356 16.1294 
9747 1 11.0203 7.53591 14.1113 
11516 1 13.0255 4.79482 17.7422 
9579 1 16.3628 4.7444 15.5425 
3913 1 13.5541 4.9837 15.3015 
490 1 15.4319 6.60879 14.225 
12603 1 14.6414 8.28516 16.3958 
10207 1 14.808 5.95406 17.0702 
12483 1 16.7745 7.33017 16.0923 
291 1 17.9382 6.77341 14.067 
8195 1 18.6082 6.03462 16.3219 
6486 1 20.4993 4.63015 16.4989 
1937 1 22.1682 8.20489 15.6846 
1810 1 20.6976 7.0271 17.336 
4431 1 20.5542 6.55018 14.5891 
7797 1 19.2923 8.52213 15.6485 
1603 1 22.4855 5.75632 15.9998 
7493 1 26.877 4.17664 17.7568 
7536 1 27.0084 16.2708 24.2096 
10600 1 23.871 4.38872 14.7474 
7307 1 24.4962 7.08871 15.6776 
13454 1 26.1601 4.79958 15.4415 
12577 1 26.3175 8.18862 14.5181 
3294 1 24.5182 5.46347 17.745 
528 1 22.8639 6.4187 13.6399 
270 1 3.86266 8.55809 13.4551 
3077 1 1.68553 8.93495 14.7453 
4233 1 0.678704 9.68213 17.0845 
12926 1 0.493578 11.1871 15.0618 
3276 1 2.7158 10.6615 16.5194 
647 1 2.78109 11.0706 13.8894 
8483 1 2.01578 13.1939 15.4147 
2590 1 4.52396 12.0301 15.5737 
4646 1 4.54878 9.60737 15.51 
10289 1 6.88975 10.7218 15.316 
9646 1 8.26306 12.3089 16.6277 
10054 1 6.11297 13.2327 17.3299 
2699 1 6.30699 10.6556 17.6327 
6785 1 4.75057 8.85676 17.839 
6867 1 8.62598 9.74294 17.0272 
4111 1 6.51125 13.2652 14.8041 
9539 1 10.7191 9.14414 15.7636 
693 1 9.35362 11.2818 14.8575 
12359 1 12.0123 11.2289 15.35 
6346 1 12.7464 9.67118 17.0747 
11985 1 10.5973 10.9961 17.5153 
477 1 10.6731 13.0336 16.2875 
4216 1 13.2984 12.0488 17.5148 
1096 1 11.3539 12.7812 13.5678 
272 1 13.0428 8.9068 14.3885 
4424 1 16.3769 9.11662 14.5949 
855 1 16.2405 9.69262 17.1029 
90 1 16.8894 11.6261 15.3748 
6871 1 14.5414 10.6697 15.7359 
11260 1 15.0929 12.5944 13.9878 
3669 1 15.9167 11.8669 17.9835 
2062 1 20.9141 9.10346 13.714 
7265 1 18.5484 10.5721 17.1413 
13021 1 19.2582 12.4781 15.2988 
7941 1 20.6902 10.5581 15.4428 
1557 1 18.5557 10.0708 13.9005 
9534 1 20.2814 11.9581 17.758 
1884 1 20.9911 9.46647 17.647 
3243 1 21.7536 13.1093 14.6785 
2541 1 22.6771 11.5574 16.5619 
7145 1 26.1591 9.0077 16.9193 
7723 1 24.3698 9.80996 15.2669 
7781 1 24.3542 12.5114 14.9925 
7949 1 25.6657 11.2256 16.9242 
4486 1 26.6293 12.6271 14.6298 
11660 1 22.7805 10.9592 13.7186 
1750 1 23.8892 9.73592 17.7259 
4584 1 25.5525 10.5863 13.3541 
8248 1 22.9553 17.9078 24.3562 
7270 1 0.216681 13.6286 17.3738 
10761 1 3.75765 13.8453 13.8652 
6979 1 0.205697 15.3563 15.622 
3863 1 2.57758 15.8298 15.7067 
838 1 1.17074 17.4342 14.2061 
1265 1 3.8404 16.4977 17.9368 
10144 1 -0.203179 1.71299 19.2872 
3419 1 19.9647 -0.459379 16.158 
7864 1 -0.283175 13.3927 14.6841 
10524 1 4.89421 17.3429 16.0236 
9691 1 4.58088 14.6683 15.9196 
6483 1 8.10252 14.8485 16.1324 
804 1 6.20402 15.7955 17.284 
7471 1 6.28133 15.7265 14.6141 
2711 1 8.58955 16.2511 14.1328 
754 1 7.53087 17.7294 16.3574 
5717 1 4.04466 16.2756 13.6159 
2171 1 8.82555 13.7196 14.2387 
6139 1 10.8163 15.051 15.0429 
5037 1 9.69692 16.6185 16.7374 
5472 1 11.9043 17.1645 15.5943 
2204 1 11.7656 15.1262 17.213 
1981 1 12.7062 15.6613 13.81 
5497 1 12.9688 13.7588 15.3892 
189 1 9.52833 14.34 17.9073 
368 1 12.2516 17.842 25.822 
9021 1 15.287 13.4665 16.3532 
12552 1 14.0275 15.925 16.3769 
12332 1 16.3576 16.6683 15.2769 
2889 1 17.3668 14.187 14.857 
9216 1 15.167 15.024 14.4529 
10512 1 16.5594 15.4499 17.3547 
31 1 14.0567 17.6143 14.4228 
6277 1 17.9887 13.2791 17.1082 
1185 1 20.4266 14.1508 16.5021 
553 1 18.7596 16.9969 14.3681 
11818 1 18.7034 15.8098 16.6019 
10116 1 21.1602 15.8488 14.6706 
8983 1 21.9767 15.943 17.3017 
9932 1 19.5281 14.4328 13.8985 
10459 1 20.4728 17.8208 16.2838 
4257 1 26.3889 16.2985 17.6232 
5808 1 23.4222 13.9467 16.5104 
10201 1 24.6666 15.9039 16.0376 
1493 1 25.855 13.877 17.1054 
6289 1 23.4241 15.0668 13.8997 
2124 1 24.8988 16.9818 13.8043 
828 1 23.9911 17.7011 17.6061 
7384 1 26.0481 14.7157 14.0474 
1391 1 22.8285 17.5695 15.334 
9433 1 2.39773 2.09242 19.22 
5600 1 1.4819 1.54689 21.2499 
4104 1 3.21102 3.60735 21.2884 
2569 1 0.814044 3.88373 20.3335 
5027 1 -0.164509 -0.193587 22.3838 
12273 1 -0.239357 12.2311 20.1333 
9669 1 4.76151 1.22897 18.0329 
12434 1 4.08782 1.13241 20.6759 
7833 1 4.93799 3.19045 19.5566 
12748 1 6.58816 1.59244 19.8887 
6953 1 7.94552 1.7878 21.7796 
12263 1 5.66339 2.40616 22.1958 
12725 1 8.42888 -0.176845 20.0694 
7712 1 8.48388 3.17421 19.8667 
12893 1 6.42574 -0.297789 21.8454 
7759 1 13.3342 -0.235617 18.1946 
12064 1 9.37839 1.61674 18.4439 
9601 1 11.9191 1.70506 19.1956 
655 1 12.5835 0.803811 21.2107 
9237 1 10.2238 1.45877 20.933 
5878 1 9.44047 3.82599 22.1917 
11219 1 11.8754 2.99261 22.186 
821 1 10.9582 3.95761 19.9919 
4543 1 13.5932 3.38047 19.8313 
360 1 14.5885 2.2597 21.6728 
9007 1 14.7458 1.20651 19.3236 
1541 1 16.8029 0.864539 20.7966 
10578 1 16.1293 3.22121 19.8258 
10280 1 17.1388 1.41112 18.2426 
8945 1 18.0862 2.74925 21.9279 
4586 1 20.04 0.787666 18.3555 
10218 1 18.5925 2.91105 19.5534 
8112 1 20.6457 3 18.5676 
1345 1 19.1182 0.874486 20.7413 
2310 1 21.4334 1.43602 20.6567 
7879 1 26.6036 1.71569 18.0071 
7932 1 22.7187 3.99737 20.5832 
627 1 23.0552 -0.101486 19.2096 
2316 1 23.2165 2.35102 18.7548 
4038 1 25.3605 0.480266 19.6116 
10073 1 26.6243 2.08032 21.138 
3084 1 23.9793 1.84107 21.2281 
12598 1 25.2564 3.54569 19.4241 
8118 1 25.1181 4.07573 21.9614 
690 1 25.6175 -0.329401 21.7303 
2319 1 8.87436 -0.287912 22.6571 
12512 1 2.86631 4.50394 18.907 
10260 1 0.906369 5.50879 18.5624 
4240 1 2.24527 5.74794 20.9418 
10087 1 0.717417 8.19584 19.023 
4003 1 2.8607 6.97549 18.8408 
6553 1 2.25002 8.21925 21.132 
12317 1 4.80535 8.0822 20.3772 
6123 1 6.94886 4.42214 21.4715 
2653 1 5.16345 6.54423 18.4357 
8954 1 4.68957 5.63506 20.6859 
4968 1 6.77886 4.92735 19.1363 
3005 1 7.00502 6.78219 20.7767 
12107 1 8.81115 7.21395 18.8069 
2737 1 8.75016 8.54131 21.3523 
5338 1 8.74902 6.11235 22.7008 
1780 1 10.8527 8.44498 17.9961 
3361 1 10.9748 6.02611 18.228 
6107 1 9.1957 5.43914 20.3543 
3327 1 12.6874 5.89882 20.0795 
2298 1 11.2024 5.48246 22.1621 
8380 1 10.9494 7.44543 20.3289 
8082 1 13.2153 7.57755 18.3798 
8851 1 12.824 7.19972 22.412 
3720 1 13.3939 8.40465 20.6557 
5723 1 16.011 4.30234 22.1539 
7822 1 13.6777 4.63153 21.8384 
11280 1 17.0455 5.68259 18.2403 
7531 1 15.0164 5.342 19.4869 
7134 1 15.3774 6.77274 21.228 
5901 1 15.8128 7.70879 18.7503 
737 1 17.7417 7.43347 20.2899 
9166 1 17.5726 5.01006 20.5449 
8793 1 20.2675 3.80774 21.0335 
2718 1 18.2605 8.20947 17.8793 
11413 1 19.6258 5.53738 18.9649 
8131 1 19.607 6.29337 21.5341 
2274 1 20.3238 8.06229 19.7713 
2540 1 21.7713 6.13981 20.3855 
3328 1 21.7141 7.74091 22.1988 
6079 1 22.2626 4.87889 18.4138 
9865 1 23.025 7.39062 17.9786 
3013 1 26.7372 5.97476 19.4039 
5542 1 26.165 6.43107 21.8599 
1554 1 24.2247 6.04145 20.2376 
7077 1 25.2617 7.81873 18.6176 
11901 1 24.5967 8.22297 21.4574 
7160 1 23.6082 5.81734 22.4327 
8206 1 25.4641 2.89028 13.7181 
12667 1 23.0039 0.00522885 13.3285 
956 1 3.98009 11.7171 18.2385 
9841 1 0.00878153 -0.472714 25.4221 
7387 1 -0.100174 8.7027 21.573 
1099 1 1.47985 11.8225 18.5308 
657 1 2.70271 9.65124 19.05 
1663 1 1.3192 12.8171 21.9704 
1693 1 1.71214 10.6119 21.1401 
13231 1 3.48506 12.3835 20.5457 
3401 1 3.84608 9.71432 22.3983 
10627 1 6.86786 8.51455 19.0272 
6922 1 4.8997 10.3059 20.0833 
11753 1 6.17452 8.95478 22.031 
7462 1 6.01693 12.1663 19.6545 
4235 1 7.32132 10.4446 20.582 
1593 1 5.55802 11.6244 22.0822 
11777 1 7.7916 12.9683 21.4681 
11489 1 8.66512 11.9083 19.0057 
4392 1 9.5991 9.78099 19.542 
3166 1 12.0797 10.3505 19.4203 
13375 1 9.83175 11.4623 21.3938 
10816 1 11.1686 9.41221 21.6415 
4451 1 11.2103 12.8824 19.0714 
5435 1 11.779 13.6058 21.6069 
991 1 13.4937 12.5866 19.9706 
7810 1 13.5936 10.4902 21.6318 
11535 1 14.5196 9.9675 18.9999 
5486 1 15.775 9.11076 21.1171 
7860 1 17.186 9.97301 19.4057 
8998 1 15.7241 11.7773 20.4103 
6353 1 14.1066 12.7346 22.4583 
12146 1 18.1909 11.3748 21.5174 
11554 1 18.1146 12.3906 19.4615 
9117 1 19.2588 8.99589 21.997 
11395 1 19.4857 10.1688 19.5137 
11988 1 21.4382 10.0425 21.2469 
4934 1 20.5748 12.3229 20.4641 
3925 1 22.2692 10.9631 19.1203 
9805 1 20.1653 11.6557 22.8569 
6770 1 22.9915 8.57968 19.9716 
6427 1 26.7306 12.4937 19.0779 
10669 1 23.0102 13.1167 20.5336 
495 1 24.2719 12.317 18.5776 
4303 1 25.5428 10.269 19.5874 
7284 1 23.7699 10.7572 21.0872 
7347 1 25.5084 12.4937 21.2221 
2727 1 26.0811 9.86848 22.3879 
4970 1 2.68066 13.8714 17.7155 
2614 1 1.28218 16.0763 17.882 
6781 1 0.511223 16.46 20.2822 
11086 1 1.30152 14.1847 19.8674 
7464 1 3.16981 15.9114 20.1631 
674 1 3.21899 14.4048 21.8355 
7795 1 2.69861 17.5691 21.8929 
7563 1 1.08717 15.3895 22.1893 
8028 1 5.16399 6.41254 13.5062 
8513 1 4.60391 14.1457 19.0506 
826 1 7.28472 14.2619 19.2743 
5754 1 5.83745 16.0713 19.6533 
716 1 7.97384 15.7603 21.2387 
3088 1 8.01372 16.4467 18.6929 
11518 1 5.12502 16.3371 22.0656 
5373 1 5.66342 13.9748 21.4463 
1898 1 26.7885 16.8304 26.914 
12097 1 9.52488 17.8963 21.1366 
7873 1 9.57776 14.1583 20.3848 
7988 1 10.5067 16.7139 19.0124 
9730 1 10.7534 15.9053 21.6903 
3900 1 12.2271 15.1393 19.7475 
4204 1 12.7635 17.2755 18.0924 
7244 1 12.896 17.4691 20.9012 
5031 1 16.6055 13.415 21.8086 
7414 1 13.9327 14.3025 18.1902 
971 1 16.2619 13.9675 19.2255 
1671 1 15.1429 16.8555 22.1645 
2032 1 14.6386 14.6593 20.9042 
11324 1 14.7689 16.4554 19.2884 
1346 1 16.9279 15.9332 20.5339 
2102 1 17.7352 17.3409 18.7043 
2170 1 22.0655 13.3744 18.3582 
11231 1 18.9021 13.9023 21.3878 
13462 1 20.0821 16.7846 18.5592 
1295 1 18.8668 14.8243 19.0256 