Position data Generated by SPaMD
2	atoms
2	atom types
0.000000		4.085500	xlo xhi
0.000000		4.085500	ylo yhi
0.000000		4.085500	zlo zhi
0.000000		0.000000	0.000000	xy xz yz

Atoms

1	1	0.000000	0.000000	0.000000
2	2	2.042750	2.042750	2.042750
