Position data Generated by SPaMD
1	atoms
1	atom types
0.000000		6.674000	xlo xhi
0.000000		6.117000	ylo yhi
0.000000		3.098184	zlo zhi
0.000000		-1.147898	0.000000	xy xz yz

Atoms

1	1	1.525013	0.000000	0.387273
