Position data Generated by SPaMD
2	atoms
2	atom types
0.000000		4.300000	xlo xhi
0.000000		3.723909	ylo yhi
0.000000		7.033000	zlo zhi
-2.150000		0.000000	0.000000	xy xz yz

Atoms

1	1	0.000000	0.000000	0.000000
2	2	0.000000	0.000000	2.644408
