Position data Generated by SPaMD
4	atoms
1	atom types
0.000000		5.597988	xlo xhi
0.000000		3.232000	ylo yhi
0.000000		5.182000	zlo zhi
-0.000000		0.000000	0.000000	xy xz yz

Atoms

1	1	0.932998	1.616000	1.295500
2	1	1.865996	0.000000	3.886500
3	1	4.664990	1.616000	3.886500
4	1	3.731992	0.000000	1.295500
