Position data Generated by SPaMD
30	atoms
2	atom types
0.000000		4.805027	xlo xhi
0.000000		4.161276	ylo yhi
0.000000		13.116253	zlo zhi
-2.402514		0.000000	0.000000	xy xz yz

Atoms

1	1	0.000000	2.774184	10.684115
2	1	2.402514	1.387092	8.990265
3	1	0.000000	0.000000	8.498073
4	1	-0.000000	2.774184	6.804223
5	1	0.000000	0.000000	1.939946
6	1	0.000000	2.774184	0.246096
7	1	2.402514	1.387092	12.870157
8	1	0.000000	0.000000	11.176307
9	1	2.402514	1.387092	6.312031
10	1	0.000000	0.000000	4.618180
11	1	0.000000	2.774184	4.125989
12	1	2.402514	1.387092	2.432138
13	2	0.931476	1.387092	7.651148
14	2	1.666995	2.887320	9.837190
15	2	3.138032	2.661048	7.651148
16	2	3.138032	0.113136	7.651148
17	2	-0.735519	1.273956	9.837190
18	2	1.471037	-0.000000	9.837190
19	2	-1.471037	2.774184	12.023232
20	2	1.666995	0.113136	1.093021
21	2	0.735519	4.048140	12.023232
22	2	0.735519	1.500228	12.023232
23	2	1.666995	2.661048	1.093021
24	2	3.873551	1.387092	1.093021
25	2	3.333990	-0.000000	3.279063
26	2	-0.735519	1.500228	5.465106
27	2	0.735519	1.273956	3.279063
28	2	-1.666995	2.887320	3.279063
29	2	-0.735519	4.048140	5.465106
30	2	1.471037	2.774184	5.465106
