Kikuchi_sphere_radius
39.84063745
Kikuchi_line_intensity
227
-1.42045455	-0.85227273	-0.28409091	1.84959341
-1.42045455	-0.85227273	0.28409091	1.84959341
-1.42045455	-0.28409091	-0.85227273	1.84959341
-1.42045455	-0.28409091	-0.28409091	2.79855271
-1.42045455	-0.28409091	0.28409091	2.79855271
-1.42045455	-0.28409091	0.85227273	1.84959341
-1.42045455	0.28409091	-0.85227273	1.84959341
-1.42045455	0.28409091	-0.28409091	2.79855271
-1.42045455	0.28409091	0.28409091	2.79855271
-1.42045455	0.28409091	0.85227273	1.84959341
-1.42045455	0.85227273	-0.28409091	1.84959341
-1.42045455	0.85227273	0.28409091	1.84959341
-1.13636364	-1.13636364	0.00000000	2.13962543
-1.13636364	-0.56818182	-0.56818182	3.35154330
-1.13636364	-0.56818182	0.00000000	4.38726946
-1.13636364	-0.56818182	0.56818182	3.35154330
-1.13636364	0.00000000	-1.13636364	2.13962543
-1.13636364	0.00000000	-0.56818182	4.38726946
-1.13636364	0.00000000	0.00000000	5.98919949
-1.13636364	0.00000000	0.56818182	4.38726946
-1.13636364	0.00000000	1.13636364	2.13962543
-1.13636364	0.56818182	-0.56818182	3.35154330
-1.13636364	0.56818182	0.00000000	4.38726946
-1.13636364	0.56818182	0.56818182	3.35154330
-1.13636364	1.13636364	0.00000000	2.13962543
-0.85227273	-1.42045455	-0.28409091	1.84959341
-0.85227273	-1.42045455	0.28409091	1.84959341
-0.85227273	-0.85227273	-0.85227273	2.79855271
-0.85227273	-0.85227273	-0.28409091	4.72156563
-0.85227273	-0.85227273	0.28409091	4.72156563
-0.85227273	-0.85227273	0.85227273	2.79855271
-0.85227273	-0.28409091	-1.42045455	1.84959341
-0.85227273	-0.28409091	-0.85227273	4.72156563
-0.85227273	-0.28409091	-0.28409091	9.59517375
-0.85227273	-0.28409091	0.28409091	9.59517375
-0.85227273	-0.28409091	0.85227273	4.72156563
-0.85227273	-0.28409091	1.42045455	1.84959341
-0.85227273	0.28409091	-1.42045455	1.84959341
-0.85227273	0.28409091	-0.85227273	4.72156563
-0.85227273	0.28409091	-0.28409091	9.59517375
-0.85227273	0.28409091	0.28409091	9.59517375
-0.85227273	0.28409091	0.85227273	4.72156563
-0.85227273	0.28409091	1.42045455	1.84959341
-0.85227273	0.85227273	-0.85227273	2.79855271
-0.85227273	0.85227273	-0.28409091	4.72156563
-0.85227273	0.85227273	0.28409091	4.72156563
-0.85227273	0.85227273	0.85227273	2.79855271
-0.85227273	1.42045455	-0.28409091	1.84959341
-0.85227273	1.42045455	0.28409091	1.84959341
-0.56818182	-1.13636364	-0.56818182	3.35154330
-0.56818182	-1.13636364	0.00000000	4.38726946
-0.56818182	-1.13636364	0.56818182	3.35154330
-0.56818182	-0.56818182	-1.13636364	3.35154330
-0.56818182	-0.56818182	-0.56818182	8.65022798
-0.56818182	-0.56818182	0.00000000	13.67291167
-0.56818182	-0.56818182	0.56818182	8.65022798
-0.56818182	-0.56818182	1.13636364	3.35154330
-0.56818182	0.00000000	-1.13636364	4.38726946
-0.56818182	0.00000000	-0.56818182	13.67291167
-0.56818182	0.00000000	0.00000000	27.06560591
-0.56818182	0.00000000	0.56818182	13.67291167
-0.56818182	0.00000000	1.13636364	4.38726946
-0.56818182	0.56818182	-1.13636364	3.35154330
-0.56818182	0.56818182	-0.56818182	8.65022798
-0.56818182	0.56818182	0.00000000	13.67291167
-0.56818182	0.56818182	0.56818182	8.65022798
-0.56818182	0.56818182	1.13636364	3.35154330
-0.56818182	1.13636364	-0.56818182	3.35154330
-0.56818182	1.13636364	0.00000000	4.38726946
-0.56818182	1.13636364	0.56818182	3.35154330
-0.28409091	-1.42045455	-0.85227273	1.84959341
-0.28409091	-1.42045455	-0.28409091	2.79855271
-0.28409091	-1.42045455	0.28409091	2.79855271
-0.28409091	-1.42045455	0.85227273	1.84959341
-0.28409091	-0.85227273	-1.42045455	1.84959341
-0.28409091	-0.85227273	-0.85227273	4.72156563
-0.28409091	-0.85227273	-0.28409091	9.59517375
-0.28409091	-0.85227273	0.28409091	9.59517375
-0.28409091	-0.85227273	0.85227273	4.72156563
-0.28409091	-0.85227273	1.42045455	1.84959341
-0.28409091	-0.28409091	-1.42045455	2.79855271
-0.28409091	-0.28409091	-0.85227273	9.59517375
-0.28409091	-0.28409091	-0.28409091	34.99395820
-0.28409091	-0.28409091	0.28409091	34.99395820
-0.28409091	-0.28409091	0.85227273	9.59517375
-0.28409091	-0.28409091	1.42045455	2.79855271
-0.28409091	0.28409091	-1.42045455	2.79855271
-0.28409091	0.28409091	-0.85227273	9.59517375
-0.28409091	0.28409091	-0.28409091	34.99395820
-0.28409091	0.28409091	0.28409091	34.99395820
-0.28409091	0.28409091	0.85227273	9.59517375
-0.28409091	0.28409091	1.42045455	2.79855271
-0.28409091	0.85227273	-1.42045455	1.84959341
-0.28409091	0.85227273	-0.85227273	4.72156563
-0.28409091	0.85227273	-0.28409091	9.59517375
-0.28409091	0.85227273	0.28409091	9.59517375
-0.28409091	0.85227273	0.85227273	4.72156563
-0.28409091	0.85227273	1.42045455	1.84959341
-0.28409091	1.42045455	-0.85227273	1.84959341
-0.28409091	1.42045455	-0.28409091	2.79855271
-0.28409091	1.42045455	0.28409091	2.79855271
-0.28409091	1.42045455	0.85227273	1.84959341
0.00000000	-1.13636364	-1.13636364	2.13962543
0.00000000	-1.13636364	-0.56818182	4.38726946
0.00000000	-1.13636364	0.00000000	5.98919949
0.00000000	-1.13636364	0.56818182	4.38726946
0.00000000	-1.13636364	1.13636364	2.13962543
0.00000000	-0.56818182	-1.13636364	4.38726946
0.00000000	-0.56818182	-0.56818182	13.67291167
0.00000000	-0.56818182	0.00000000	27.06560591
0.00000000	-0.56818182	0.56818182	13.67291167
0.00000000	-0.56818182	1.13636364	4.38726946
0.00000000	0.00000000	-1.13636364	5.98919949
0.00000000	0.00000000	-0.56818182	27.06560591
0.00000000	0.00000000	0.56818182	27.06560591
0.00000000	0.00000000	1.13636364	5.98919949
0.00000000	0.56818182	-1.13636364	4.38726946
0.00000000	0.56818182	-0.56818182	13.67291167
0.00000000	0.56818182	0.00000000	27.06560591
0.00000000	0.56818182	0.56818182	13.67291167
0.00000000	0.56818182	1.13636364	4.38726946
0.00000000	1.13636364	-1.13636364	2.13962543
0.00000000	1.13636364	-0.56818182	4.38726946
0.00000000	1.13636364	0.00000000	5.98919949
0.00000000	1.13636364	0.56818182	4.38726946
0.00000000	1.13636364	1.13636364	2.13962543
0.28409091	-1.42045455	-0.85227273	1.84959341
0.28409091	-1.42045455	-0.28409091	2.79855271
0.28409091	-1.42045455	0.28409091	2.79855271
0.28409091	-1.42045455	0.85227273	1.84959341
0.28409091	-0.85227273	-1.42045455	1.84959341
0.28409091	-0.85227273	-0.85227273	4.72156563
0.28409091	-0.85227273	-0.28409091	9.59517375
0.28409091	-0.85227273	0.28409091	9.59517375
0.28409091	-0.85227273	0.85227273	4.72156563
0.28409091	-0.85227273	1.42045455	1.84959341
0.28409091	-0.28409091	-1.42045455	2.79855271
0.28409091	-0.28409091	-0.85227273	9.59517375
0.28409091	-0.28409091	-0.28409091	34.99395820
0.28409091	-0.28409091	0.28409091	34.99395820
0.28409091	-0.28409091	0.85227273	9.59517375
0.28409091	-0.28409091	1.42045455	2.79855271
0.28409091	0.28409091	-1.42045455	2.79855271
0.28409091	0.28409091	-0.85227273	9.59517375
0.28409091	0.28409091	-0.28409091	34.99395820
0.28409091	0.28409091	0.28409091	34.99395820
0.28409091	0.28409091	0.85227273	9.59517375
0.28409091	0.28409091	1.42045455	2.79855271
0.28409091	0.85227273	-1.42045455	1.84959341
0.28409091	0.85227273	-0.85227273	4.72156563
0.28409091	0.85227273	-0.28409091	9.59517375
0.28409091	0.85227273	0.28409091	9.59517375
0.28409091	0.85227273	0.85227273	4.72156563
0.28409091	0.85227273	1.42045455	1.84959341
0.28409091	1.42045455	-0.85227273	1.84959341
0.28409091	1.42045455	-0.28409091	2.79855271
0.28409091	1.42045455	0.28409091	2.79855271
0.28409091	1.42045455	0.85227273	1.84959341
0.56818182	-1.13636364	-0.56818182	3.35154330
0.56818182	-1.13636364	0.00000000	4.38726946
0.56818182	-1.13636364	0.56818182	3.35154330
0.56818182	-0.56818182	-1.13636364	3.35154330
0.56818182	-0.56818182	-0.56818182	8.65022798
0.56818182	-0.56818182	0.00000000	13.67291167
0.56818182	-0.56818182	0.56818182	8.65022798
0.56818182	-0.56818182	1.13636364	3.35154330
0.56818182	0.00000000	-1.13636364	4.38726946
0.56818182	0.00000000	-0.56818182	13.67291167
0.56818182	0.00000000	0.00000000	27.06560591
0.56818182	0.00000000	0.56818182	13.67291167
0.56818182	0.00000000	1.13636364	4.38726946
0.56818182	0.56818182	-1.13636364	3.35154330
0.56818182	0.56818182	-0.56818182	8.65022798
0.56818182	0.56818182	0.00000000	13.67291167
0.56818182	0.56818182	0.56818182	8.65022798
0.56818182	0.56818182	1.13636364	3.35154330
0.56818182	1.13636364	-0.56818182	3.35154330
0.56818182	1.13636364	0.00000000	4.38726946
0.56818182	1.13636364	0.56818182	3.35154330
0.85227273	-1.42045455	-0.28409091	1.84959341
0.85227273	-1.42045455	0.28409091	1.84959341
0.85227273	-0.85227273	-0.85227273	2.79855271
0.85227273	-0.85227273	-0.28409091	4.72156563
0.85227273	-0.85227273	0.28409091	4.72156563
0.85227273	-0.85227273	0.85227273	2.79855271
0.85227273	-0.28409091	-1.42045455	1.84959341
0.85227273	-0.28409091	-0.85227273	4.72156563
0.85227273	-0.28409091	-0.28409091	9.59517375
0.85227273	-0.28409091	0.28409091	9.59517375
0.85227273	-0.28409091	0.85227273	4.72156563
0.85227273	-0.28409091	1.42045455	1.84959341
0.85227273	0.28409091	-1.42045455	1.84959341
0.85227273	0.28409091	-0.85227273	4.72156563
0.85227273	0.28409091	-0.28409091	9.59517375
0.85227273	0.28409091	0.28409091	9.59517375
0.85227273	0.28409091	0.85227273	4.72156563
0.85227273	0.28409091	1.42045455	1.84959341
0.85227273	0.85227273	-0.85227273	2.79855271
0.85227273	0.85227273	-0.28409091	4.72156563
0.85227273	0.85227273	0.28409091	4.72156563
0.85227273	0.85227273	0.85227273	2.79855271
0.85227273	1.42045455	-0.28409091	1.84959341
0.85227273	1.42045455	0.28409091	1.84959341
1.13636364	-1.13636364	0.00000000	2.13962543
1.13636364	-0.56818182	-0.56818182	3.35154330
1.13636364	-0.56818182	0.00000000	4.38726946
1.13636364	-0.56818182	0.56818182	3.35154330
1.13636364	0.00000000	-1.13636364	2.13962543
1.13636364	0.00000000	-0.56818182	4.38726946
1.13636364	0.00000000	0.00000000	5.98919949
1.13636364	0.00000000	0.56818182	4.38726946
1.13636364	0.00000000	1.13636364	2.13962543
1.13636364	0.56818182	-0.56818182	3.35154330
1.13636364	0.56818182	0.00000000	4.38726946
1.13636364	0.56818182	0.56818182	3.35154330
1.13636364	1.13636364	0.00000000	2.13962543
1.42045455	-0.85227273	-0.28409091	1.84959341
1.42045455	-0.85227273	0.28409091	1.84959341
1.42045455	-0.28409091	-0.85227273	1.84959341
1.42045455	-0.28409091	-0.28409091	2.79855271
1.42045455	-0.28409091	0.28409091	2.79855271
1.42045455	-0.28409091	0.85227273	1.84959341
1.42045455	0.28409091	-0.85227273	1.84959341
1.42045455	0.28409091	-0.28409091	2.79855271
1.42045455	0.28409091	0.28409091	2.79855271
1.42045455	0.28409091	0.85227273	1.84959341
1.42045455	0.85227273	-0.28409091	1.84959341
1.42045455	0.85227273	0.28409091	1.84959341
