Position data Generated by SPaMD
500	atoms
1	atom types
0.000000		17.600000	xlo xhi
0.000000		17.600000	ylo yhi
0.000000		17.600000	zlo zhi

Atoms

1	1	0.000000	0.000000	0.000000
2	1	1.760000	1.760000	0.000000
3	1	1.760000	0.000000	1.760000
4	1	0.000000	1.760000	1.760000
5	1	0.000000	0.000000	3.520000
6	1	1.760000	1.760000	3.520000
7	1	1.760000	0.000000	5.280000
8	1	0.000000	1.760000	5.280000
9	1	0.000000	0.000000	7.040000
10	1	1.760000	1.760000	7.040000
11	1	1.760000	0.000000	8.800000
12	1	0.000000	1.760000	8.800000
13	1	0.000000	0.000000	10.560000
14	1	1.760000	1.760000	10.560000
15	1	1.760000	0.000000	12.320000
16	1	0.000000	1.760000	12.320000
17	1	0.000000	0.000000	14.080000
18	1	1.760000	1.760000	14.080000
19	1	1.760000	0.000000	15.840000
20	1	0.000000	1.760000	15.840000
21	1	0.000000	3.520000	0.000000
22	1	1.760000	5.280000	0.000000
23	1	1.760000	3.520000	1.760000
24	1	0.000000	5.280000	1.760000
25	1	0.000000	3.520000	3.520000
26	1	1.760000	5.280000	3.520000
27	1	1.760000	3.520000	5.280000
28	1	0.000000	5.280000	5.280000
29	1	0.000000	3.520000	7.040000
30	1	1.760000	5.280000	7.040000
31	1	1.760000	3.520000	8.800000
32	1	0.000000	5.280000	8.800000
33	1	0.000000	3.520000	10.560000
34	1	1.760000	5.280000	10.560000
35	1	1.760000	3.520000	12.320000
36	1	0.000000	5.280000	12.320000
37	1	0.000000	3.520000	14.080000
38	1	1.760000	5.280000	14.080000
39	1	1.760000	3.520000	15.840000
40	1	0.000000	5.280000	15.840000
41	1	0.000000	7.040000	0.000000
42	1	1.760000	8.800000	0.000000
43	1	1.760000	7.040000	1.760000
44	1	0.000000	8.800000	1.760000
45	1	0.000000	7.040000	3.520000
46	1	1.760000	8.800000	3.520000
47	1	1.760000	7.040000	5.280000
48	1	0.000000	8.800000	5.280000
49	1	0.000000	7.040000	7.040000
50	1	1.760000	8.800000	7.040000
51	1	1.760000	7.040000	8.800000
52	1	0.000000	8.800000	8.800000
53	1	0.000000	7.040000	10.560000
54	1	1.760000	8.800000	10.560000
55	1	1.760000	7.040000	12.320000
56	1	0.000000	8.800000	12.320000
57	1	0.000000	7.040000	14.080000
58	1	1.760000	8.800000	14.080000
59	1	1.760000	7.040000	15.840000
60	1	0.000000	8.800000	15.840000
61	1	0.000000	10.560000	0.000000
62	1	1.760000	12.320000	0.000000
63	1	1.760000	10.560000	1.760000
64	1	0.000000	12.320000	1.760000
65	1	0.000000	10.560000	3.520000
66	1	1.760000	12.320000	3.520000
67	1	1.760000	10.560000	5.280000
68	1	0.000000	12.320000	5.280000
69	1	0.000000	10.560000	7.040000
70	1	1.760000	12.320000	7.040000
71	1	1.760000	10.560000	8.800000
72	1	0.000000	12.320000	8.800000
73	1	0.000000	10.560000	10.560000
74	1	1.760000	12.320000	10.560000
75	1	1.760000	10.560000	12.320000
76	1	0.000000	12.320000	12.320000
77	1	0.000000	10.560000	14.080000
78	1	1.760000	12.320000	14.080000
79	1	1.760000	10.560000	15.840000
80	1	0.000000	12.320000	15.840000
81	1	0.000000	14.080000	0.000000
82	1	1.760000	15.840000	0.000000
83	1	1.760000	14.080000	1.760000
84	1	0.000000	15.840000	1.760000
85	1	0.000000	14.080000	3.520000
86	1	1.760000	15.840000	3.520000
87	1	1.760000	14.080000	5.280000
88	1	0.000000	15.840000	5.280000
89	1	0.000000	14.080000	7.040000
90	1	1.760000	15.840000	7.040000
91	1	1.760000	14.080000	8.800000
92	1	0.000000	15.840000	8.800000
93	1	0.000000	14.080000	10.560000
94	1	1.760000	15.840000	10.560000
95	1	1.760000	14.080000	12.320000
96	1	0.000000	15.840000	12.320000
97	1	0.000000	14.080000	14.080000
98	1	1.760000	15.840000	14.080000
99	1	1.760000	14.080000	15.840000
100	1	0.000000	15.840000	15.840000
101	1	3.520000	0.000000	0.000000
102	1	5.280000	1.760000	0.000000
103	1	5.280000	0.000000	1.760000
104	1	3.520000	1.760000	1.760000
105	1	3.520000	0.000000	3.520000
106	1	5.280000	1.760000	3.520000
107	1	5.280000	0.000000	5.280000
108	1	3.520000	1.760000	5.280000
109	1	3.520000	0.000000	7.040000
110	1	5.280000	1.760000	7.040000
111	1	5.280000	0.000000	8.800000
112	1	3.520000	1.760000	8.800000
113	1	3.520000	0.000000	10.560000
114	1	5.280000	1.760000	10.560000
115	1	5.280000	0.000000	12.320000
116	1	3.520000	1.760000	12.320000
117	1	3.520000	0.000000	14.080000
118	1	5.280000	1.760000	14.080000
119	1	5.280000	0.000000	15.840000
120	1	3.520000	1.760000	15.840000
121	1	3.520000	3.520000	0.000000
122	1	5.280000	5.280000	0.000000
123	1	5.280000	3.520000	1.760000
124	1	3.520000	5.280000	1.760000
125	1	3.520000	3.520000	3.520000
126	1	5.280000	5.280000	3.520000
127	1	5.280000	3.520000	5.280000
128	1	3.520000	5.280000	5.280000
129	1	3.520000	3.520000	7.040000
130	1	5.280000	5.280000	7.040000
131	1	5.280000	3.520000	8.800000
132	1	3.520000	5.280000	8.800000
133	1	3.520000	3.520000	10.560000
134	1	5.280000	5.280000	10.560000
135	1	5.280000	3.520000	12.320000
136	1	3.520000	5.280000	12.320000
137	1	3.520000	3.520000	14.080000
138	1	5.280000	5.280000	14.080000
139	1	5.280000	3.520000	15.840000
140	1	3.520000	5.280000	15.840000
141	1	3.520000	7.040000	0.000000
142	1	5.280000	8.800000	0.000000
143	1	5.280000	7.040000	1.760000
144	1	3.520000	8.800000	1.760000
145	1	3.520000	7.040000	3.520000
146	1	5.280000	8.800000	3.520000
147	1	5.280000	7.040000	5.280000
148	1	3.520000	8.800000	5.280000
149	1	3.520000	7.040000	7.040000
150	1	5.280000	8.800000	7.040000
151	1	5.280000	7.040000	8.800000
152	1	3.520000	8.800000	8.800000
153	1	3.520000	7.040000	10.560000
154	1	5.280000	8.800000	10.560000
155	1	5.280000	7.040000	12.320000
156	1	3.520000	8.800000	12.320000
157	1	3.520000	7.040000	14.080000
158	1	5.280000	8.800000	14.080000
159	1	5.280000	7.040000	15.840000
160	1	3.520000	8.800000	15.840000
161	1	3.520000	10.560000	0.000000
162	1	5.280000	12.320000	0.000000
163	1	5.280000	10.560000	1.760000
164	1	3.520000	12.320000	1.760000
165	1	3.520000	10.560000	3.520000
166	1	5.280000	12.320000	3.520000
167	1	5.280000	10.560000	5.280000
168	1	3.520000	12.320000	5.280000
169	1	3.520000	10.560000	7.040000
170	1	5.280000	12.320000	7.040000
171	1	5.280000	10.560000	8.800000
172	1	3.520000	12.320000	8.800000
173	1	3.520000	10.560000	10.560000
174	1	5.280000	12.320000	10.560000
175	1	5.280000	10.560000	12.320000
176	1	3.520000	12.320000	12.320000
177	1	3.520000	10.560000	14.080000
178	1	5.280000	12.320000	14.080000
179	1	5.280000	10.560000	15.840000
180	1	3.520000	12.320000	15.840000
181	1	3.520000	14.080000	0.000000
182	1	5.280000	15.840000	0.000000
183	1	5.280000	14.080000	1.760000
184	1	3.520000	15.840000	1.760000
185	1	3.520000	14.080000	3.520000
186	1	5.280000	15.840000	3.520000
187	1	5.280000	14.080000	5.280000
188	1	3.520000	15.840000	5.280000
189	1	3.520000	14.080000	7.040000
190	1	5.280000	15.840000	7.040000
191	1	5.280000	14.080000	8.800000
192	1	3.520000	15.840000	8.800000
193	1	3.520000	14.080000	10.560000
194	1	5.280000	15.840000	10.560000
195	1	5.280000	14.080000	12.320000
196	1	3.520000	15.840000	12.320000
197	1	3.520000	14.080000	14.080000
198	1	5.280000	15.840000	14.080000
199	1	5.280000	14.080000	15.840000
200	1	3.520000	15.840000	15.840000
201	1	7.040000	0.000000	0.000000
202	1	8.800000	1.760000	0.000000
203	1	8.800000	0.000000	1.760000
204	1	7.040000	1.760000	1.760000
205	1	7.040000	0.000000	3.520000
206	1	8.800000	1.760000	3.520000
207	1	8.800000	0.000000	5.280000
208	1	7.040000	1.760000	5.280000
209	1	7.040000	0.000000	7.040000
210	1	8.800000	1.760000	7.040000
211	1	8.800000	0.000000	8.800000
212	1	7.040000	1.760000	8.800000
213	1	7.040000	0.000000	10.560000
214	1	8.800000	1.760000	10.560000
215	1	8.800000	0.000000	12.320000
216	1	7.040000	1.760000	12.320000
217	1	7.040000	0.000000	14.080000
218	1	8.800000	1.760000	14.080000
219	1	8.800000	0.000000	15.840000
220	1	7.040000	1.760000	15.840000
221	1	7.040000	3.520000	0.000000
222	1	8.800000	5.280000	0.000000
223	1	8.800000	3.520000	1.760000
224	1	7.040000	5.280000	1.760000
225	1	7.040000	3.520000	3.520000
226	1	8.800000	5.280000	3.520000
227	1	8.800000	3.520000	5.280000
228	1	7.040000	5.280000	5.280000
229	1	7.040000	3.520000	7.040000
230	1	8.800000	5.280000	7.040000
231	1	8.800000	3.520000	8.800000
232	1	7.040000	5.280000	8.800000
233	1	7.040000	3.520000	10.560000
234	1	8.800000	5.280000	10.560000
235	1	8.800000	3.520000	12.320000
236	1	7.040000	5.280000	12.320000
237	1	7.040000	3.520000	14.080000
238	1	8.800000	5.280000	14.080000
239	1	8.800000	3.520000	15.840000
240	1	7.040000	5.280000	15.840000
241	1	7.040000	7.040000	0.000000
242	1	8.800000	8.800000	0.000000
243	1	8.800000	7.040000	1.760000
244	1	7.040000	8.800000	1.760000
245	1	7.040000	7.040000	3.520000
246	1	8.800000	8.800000	3.520000
247	1	8.800000	7.040000	5.280000
248	1	7.040000	8.800000	5.280000
249	1	7.040000	7.040000	7.040000
250	1	8.800000	8.800000	7.040000
251	1	8.800000	7.040000	8.800000
252	1	7.040000	8.800000	8.800000
253	1	7.040000	7.040000	10.560000
254	1	8.800000	8.800000	10.560000
255	1	8.800000	7.040000	12.320000
256	1	7.040000	8.800000	12.320000
257	1	7.040000	7.040000	14.080000
258	1	8.800000	8.800000	14.080000
259	1	8.800000	7.040000	15.840000
260	1	7.040000	8.800000	15.840000
261	1	7.040000	10.560000	0.000000
262	1	8.800000	12.320000	0.000000
263	1	8.800000	10.560000	1.760000
264	1	7.040000	12.320000	1.760000
265	1	7.040000	10.560000	3.520000
266	1	8.800000	12.320000	3.520000
267	1	8.800000	10.560000	5.280000
268	1	7.040000	12.320000	5.280000
269	1	7.040000	10.560000	7.040000
270	1	8.800000	12.320000	7.040000
271	1	8.800000	10.560000	8.800000
272	1	7.040000	12.320000	8.800000
273	1	7.040000	10.560000	10.560000
274	1	8.800000	12.320000	10.560000
275	1	8.800000	10.560000	12.320000
276	1	7.040000	12.320000	12.320000
277	1	7.040000	10.560000	14.080000
278	1	8.800000	12.320000	14.080000
279	1	8.800000	10.560000	15.840000
280	1	7.040000	12.320000	15.840000
281	1	7.040000	14.080000	0.000000
282	1	8.800000	15.840000	0.000000
283	1	8.800000	14.080000	1.760000
284	1	7.040000	15.840000	1.760000
285	1	7.040000	14.080000	3.520000
286	1	8.800000	15.840000	3.520000
287	1	8.800000	14.080000	5.280000
288	1	7.040000	15.840000	5.280000
289	1	7.040000	14.080000	7.040000
290	1	8.800000	15.840000	7.040000
291	1	8.800000	14.080000	8.800000
292	1	7.040000	15.840000	8.800000
293	1	7.040000	14.080000	10.560000
294	1	8.800000	15.840000	10.560000
295	1	8.800000	14.080000	12.320000
296	1	7.040000	15.840000	12.320000
297	1	7.040000	14.080000	14.080000
298	1	8.800000	15.840000	14.080000
299	1	8.800000	14.080000	15.840000
300	1	7.040000	15.840000	15.840000
301	1	10.560000	0.000000	0.000000
302	1	12.320000	1.760000	0.000000
303	1	12.320000	0.000000	1.760000
304	1	10.560000	1.760000	1.760000
305	1	10.560000	0.000000	3.520000
306	1	12.320000	1.760000	3.520000
307	1	12.320000	0.000000	5.280000
308	1	10.560000	1.760000	5.280000
309	1	10.560000	0.000000	7.040000
310	1	12.320000	1.760000	7.040000
311	1	12.320000	0.000000	8.800000
312	1	10.560000	1.760000	8.800000
313	1	10.560000	0.000000	10.560000
314	1	12.320000	1.760000	10.560000
315	1	12.320000	0.000000	12.320000
316	1	10.560000	1.760000	12.320000
317	1	10.560000	0.000000	14.080000
318	1	12.320000	1.760000	14.080000
319	1	12.320000	0.000000	15.840000
320	1	10.560000	1.760000	15.840000
321	1	10.560000	3.520000	0.000000
322	1	12.320000	5.280000	0.000000
323	1	12.320000	3.520000	1.760000
324	1	10.560000	5.280000	1.760000
325	1	10.560000	3.520000	3.520000
326	1	12.320000	5.280000	3.520000
327	1	12.320000	3.520000	5.280000
328	1	10.560000	5.280000	5.280000
329	1	10.560000	3.520000	7.040000
330	1	12.320000	5.280000	7.040000
331	1	12.320000	3.520000	8.800000
332	1	10.560000	5.280000	8.800000
333	1	10.560000	3.520000	10.560000
334	1	12.320000	5.280000	10.560000
335	1	12.320000	3.520000	12.320000
336	1	10.560000	5.280000	12.320000
337	1	10.560000	3.520000	14.080000
338	1	12.320000	5.280000	14.080000
339	1	12.320000	3.520000	15.840000
340	1	10.560000	5.280000	15.840000
341	1	10.560000	7.040000	0.000000
342	1	12.320000	8.800000	0.000000
343	1	12.320000	7.040000	1.760000
344	1	10.560000	8.800000	1.760000
345	1	10.560000	7.040000	3.520000
346	1	12.320000	8.800000	3.520000
347	1	12.320000	7.040000	5.280000
348	1	10.560000	8.800000	5.280000
349	1	10.560000	7.040000	7.040000
350	1	12.320000	8.800000	7.040000
351	1	12.320000	7.040000	8.800000
352	1	10.560000	8.800000	8.800000
353	1	10.560000	7.040000	10.560000
354	1	12.320000	8.800000	10.560000
355	1	12.320000	7.040000	12.320000
356	1	10.560000	8.800000	12.320000
357	1	10.560000	7.040000	14.080000
358	1	12.320000	8.800000	14.080000
359	1	12.320000	7.040000	15.840000
360	1	10.560000	8.800000	15.840000
361	1	10.560000	10.560000	0.000000
362	1	12.320000	12.320000	0.000000
363	1	12.320000	10.560000	1.760000
364	1	10.560000	12.320000	1.760000
365	1	10.560000	10.560000	3.520000
366	1	12.320000	12.320000	3.520000
367	1	12.320000	10.560000	5.280000
368	1	10.560000	12.320000	5.280000
369	1	10.560000	10.560000	7.040000
370	1	12.320000	12.320000	7.040000
371	1	12.320000	10.560000	8.800000
372	1	10.560000	12.320000	8.800000
373	1	10.560000	10.560000	10.560000
374	1	12.320000	12.320000	10.560000
375	1	12.320000	10.560000	12.320000
376	1	10.560000	12.320000	12.320000
377	1	10.560000	10.560000	14.080000
378	1	12.320000	12.320000	14.080000
379	1	12.320000	10.560000	15.840000
380	1	10.560000	12.320000	15.840000
381	1	10.560000	14.080000	0.000000
382	1	12.320000	15.840000	0.000000
383	1	12.320000	14.080000	1.760000
384	1	10.560000	15.840000	1.760000
385	1	10.560000	14.080000	3.520000
386	1	12.320000	15.840000	3.520000
387	1	12.320000	14.080000	5.280000
388	1	10.560000	15.840000	5.280000
389	1	10.560000	14.080000	7.040000
390	1	12.320000	15.840000	7.040000
391	1	12.320000	14.080000	8.800000
392	1	10.560000	15.840000	8.800000
393	1	10.560000	14.080000	10.560000
394	1	12.320000	15.840000	10.560000
395	1	12.320000	14.080000	12.320000
396	1	10.560000	15.840000	12.320000
397	1	10.560000	14.080000	14.080000
398	1	12.320000	15.840000	14.080000
399	1	12.320000	14.080000	15.840000
400	1	10.560000	15.840000	15.840000
401	1	14.080000	0.000000	0.000000
402	1	15.840000	1.760000	0.000000
403	1	15.840000	0.000000	1.760000
404	1	14.080000	1.760000	1.760000
405	1	14.080000	0.000000	3.520000
406	1	15.840000	1.760000	3.520000
407	1	15.840000	0.000000	5.280000
408	1	14.080000	1.760000	5.280000
409	1	14.080000	0.000000	7.040000
410	1	15.840000	1.760000	7.040000
411	1	15.840000	0.000000	8.800000
412	1	14.080000	1.760000	8.800000
413	1	14.080000	0.000000	10.560000
414	1	15.840000	1.760000	10.560000
415	1	15.840000	0.000000	12.320000
416	1	14.080000	1.760000	12.320000
417	1	14.080000	0.000000	14.080000
418	1	15.840000	1.760000	14.080000
419	1	15.840000	0.000000	15.840000
420	1	14.080000	1.760000	15.840000
421	1	14.080000	3.520000	0.000000
422	1	15.840000	5.280000	0.000000
423	1	15.840000	3.520000	1.760000
424	1	14.080000	5.280000	1.760000
425	1	14.080000	3.520000	3.520000
426	1	15.840000	5.280000	3.520000
427	1	15.840000	3.520000	5.280000
428	1	14.080000	5.280000	5.280000
429	1	14.080000	3.520000	7.040000
430	1	15.840000	5.280000	7.040000
431	1	15.840000	3.520000	8.800000
432	1	14.080000	5.280000	8.800000
433	1	14.080000	3.520000	10.560000
434	1	15.840000	5.280000	10.560000
435	1	15.840000	3.520000	12.320000
436	1	14.080000	5.280000	12.320000
437	1	14.080000	3.520000	14.080000
438	1	15.840000	5.280000	14.080000
439	1	15.840000	3.520000	15.840000
440	1	14.080000	5.280000	15.840000
441	1	14.080000	7.040000	0.000000
442	1	15.840000	8.800000	0.000000
443	1	15.840000	7.040000	1.760000
444	1	14.080000	8.800000	1.760000
445	1	14.080000	7.040000	3.520000
446	1	15.840000	8.800000	3.520000
447	1	15.840000	7.040000	5.280000
448	1	14.080000	8.800000	5.280000
449	1	14.080000	7.040000	7.040000
450	1	15.840000	8.800000	7.040000
451	1	15.840000	7.040000	8.800000
452	1	14.080000	8.800000	8.800000
453	1	14.080000	7.040000	10.560000
454	1	15.840000	8.800000	10.560000
455	1	15.840000	7.040000	12.320000
456	1	14.080000	8.800000	12.320000
457	1	14.080000	7.040000	14.080000
458	1	15.840000	8.800000	14.080000
459	1	15.840000	7.040000	15.840000
460	1	14.080000	8.800000	15.840000
461	1	14.080000	10.560000	0.000000
462	1	15.840000	12.320000	0.000000
463	1	15.840000	10.560000	1.760000
464	1	14.080000	12.320000	1.760000
465	1	14.080000	10.560000	3.520000
466	1	15.840000	12.320000	3.520000
467	1	15.840000	10.560000	5.280000
468	1	14.080000	12.320000	5.280000
469	1	14.080000	10.560000	7.040000
470	1	15.840000	12.320000	7.040000
471	1	15.840000	10.560000	8.800000
472	1	14.080000	12.320000	8.800000
473	1	14.080000	10.560000	10.560000
474	1	15.840000	12.320000	10.560000
475	1	15.840000	10.560000	12.320000
476	1	14.080000	12.320000	12.320000
477	1	14.080000	10.560000	14.080000
478	1	15.840000	12.320000	14.080000
479	1	15.840000	10.560000	15.840000
480	1	14.080000	12.320000	15.840000
481	1	14.080000	14.080000	0.000000
482	1	15.840000	15.840000	0.000000
483	1	15.840000	14.080000	1.760000
484	1	14.080000	15.840000	1.760000
485	1	14.080000	14.080000	3.520000
486	1	15.840000	15.840000	3.520000
487	1	15.840000	14.080000	5.280000
488	1	14.080000	15.840000	5.280000
489	1	14.080000	14.080000	7.040000
490	1	15.840000	15.840000	7.040000
491	1	15.840000	14.080000	8.800000
492	1	14.080000	15.840000	8.800000
493	1	14.080000	14.080000	10.560000
494	1	15.840000	15.840000	10.560000
495	1	15.840000	14.080000	12.320000
496	1	14.080000	15.840000	12.320000
497	1	14.080000	14.080000	14.080000
498	1	15.840000	15.840000	14.080000
499	1	15.840000	14.080000	15.840000
500	1	14.080000	15.840000	15.840000
