Position data Generated by SPaMD
8	atoms
1	atom types
0.000000		5.443702	xlo xhi
0.000000		5.443702	ylo yhi
0.000000		5.443702	zlo zhi
0.000000		0.000000	0.000000	xy xz yz

Atoms

1	1	4.082777	4.082777	1.360926
2	1	0.000000	2.721851	2.721851
3	1	4.082777	1.360926	4.082777
4	1	0.000000	0.000000	0.000000
5	1	1.360926	4.082777	4.082777
6	1	2.721851	2.721851	0.000000
7	1	1.360926	1.360926	1.360926
8	1	2.721851	0.000000	2.721851
