Kikuchi_sphere_radius
39.84063745
Kikuchi_line_intensity
223
-1.40090358	-0.70045179	0.00000000	1.01772291
-1.40090358	-0.35022590	-0.35022590	1.20756333
-1.40090358	-0.35022590	0.35022590	1.20756333
-1.40090358	0.00000000	-0.70045179	1.01772291
-1.40090358	0.00000000	0.00000000	1.45513312
-1.40090358	0.00000000	0.70045179	1.01772291
-1.40090358	0.35022590	-0.35022590	1.20756333
-1.40090358	0.35022590	0.35022590	1.20756333
-1.40090358	0.70045179	0.00000000	1.01772291
-1.05067769	-1.05067769	-0.70045179	0.86863648
-1.05067769	-1.05067769	0.00000000	1.20756333
-1.05067769	-1.05067769	0.70045179	0.86863648
-1.05067769	-0.70045179	-1.05067769	0.86863648
-1.05067769	-0.70045179	-0.35022590	1.78760413
-1.05067769	-0.70045179	0.35022590	1.78760413
-1.05067769	-0.70045179	1.05067769	0.86863648
-1.05067769	-0.35022590	-0.70045179	1.78760413
-1.05067769	-0.35022590	0.00000000	2.92201378
-1.05067769	-0.35022590	0.70045179	1.78760413
-1.05067769	0.00000000	-1.05067769	1.20756333
-1.05067769	0.00000000	-0.35022590	2.92201378
-1.05067769	0.00000000	0.35022590	2.92201378
-1.05067769	0.00000000	1.05067769	1.20756333
-1.05067769	0.35022590	-0.70045179	1.78760413
-1.05067769	0.35022590	0.00000000	2.92201378
-1.05067769	0.35022590	0.70045179	1.78760413
-1.05067769	0.70045179	-1.05067769	0.86863648
-1.05067769	0.70045179	-0.35022590	1.78760413
-1.05067769	0.70045179	0.35022590	1.78760413
-1.05067769	0.70045179	1.05067769	0.86863648
-1.05067769	1.05067769	-0.70045179	0.86863648
-1.05067769	1.05067769	0.00000000	1.20756333
-1.05067769	1.05067769	0.70045179	0.86863648
-0.70045179	-1.40090358	0.00000000	1.01772291
-0.70045179	-1.05067769	-1.05067769	0.86863648
-0.70045179	-1.05067769	-0.35022590	1.78760413
-0.70045179	-1.05067769	0.35022590	1.78760413
-0.70045179	-1.05067769	1.05067769	0.86863648
-0.70045179	-0.70045179	-0.70045179	2.25025480
-0.70045179	-0.70045179	0.00000000	3.94922149
-0.70045179	-0.70045179	0.70045179	2.25025480
-0.70045179	-0.35022590	-1.05067769	1.78760413
-0.70045179	-0.35022590	-0.35022590	5.63748939
-0.70045179	-0.35022590	0.35022590	5.63748939
-0.70045179	-0.35022590	1.05067769	1.78760413
-0.70045179	0.00000000	-1.40090358	1.01772291
-0.70045179	0.00000000	-0.70045179	3.94922149
-0.70045179	0.00000000	0.00000000	8.82839807
-0.70045179	0.00000000	0.70045179	3.94922149
-0.70045179	0.00000000	1.40090358	1.01772291
-0.70045179	0.35022590	-1.05067769	1.78760413
-0.70045179	0.35022590	-0.35022590	5.63748939
-0.70045179	0.35022590	0.35022590	5.63748939
-0.70045179	0.35022590	1.05067769	1.78760413
-0.70045179	0.70045179	-0.70045179	2.25025480
-0.70045179	0.70045179	0.00000000	3.94922149
-0.70045179	0.70045179	0.70045179	2.25025480
-0.70045179	1.05067769	-1.05067769	0.86863648
-0.70045179	1.05067769	-0.35022590	1.78760413
-0.70045179	1.05067769	0.35022590	1.78760413
-0.70045179	1.05067769	1.05067769	0.86863648
-0.70045179	1.40090358	0.00000000	1.01772291
-0.35022590	-1.40090358	-0.35022590	1.20756333
-0.35022590	-1.40090358	0.35022590	1.20756333
-0.35022590	-1.05067769	-0.70045179	1.78760413
-0.35022590	-1.05067769	0.00000000	2.92201378
-0.35022590	-1.05067769	0.70045179	1.78760413
-0.35022590	-0.70045179	-1.05067769	1.78760413
-0.35022590	-0.70045179	-0.35022590	5.63748939
-0.35022590	-0.70045179	0.35022590	5.63748939
-0.35022590	-0.70045179	1.05067769	1.78760413
-0.35022590	-0.35022590	-1.40090358	1.20756333
-0.35022590	-0.35022590	-0.70045179	5.63748939
-0.35022590	-0.35022590	0.00000000	17.46236616
-0.35022590	-0.35022590	0.70045179	5.63748939
-0.35022590	-0.35022590	1.40090358	1.20756333
-0.35022590	0.00000000	-1.05067769	2.92201378
-0.35022590	0.00000000	-0.35022590	17.46236616
-0.35022590	0.00000000	0.35022590	17.46236616
-0.35022590	0.00000000	1.05067769	2.92201378
-0.35022590	0.35022590	-1.40090358	1.20756333
-0.35022590	0.35022590	-0.70045179	5.63748939
-0.35022590	0.35022590	0.00000000	17.46236616
-0.35022590	0.35022590	0.70045179	5.63748939
-0.35022590	0.35022590	1.40090358	1.20756333
-0.35022590	0.70045179	-1.05067769	1.78760413
-0.35022590	0.70045179	-0.35022590	5.63748939
-0.35022590	0.70045179	0.35022590	5.63748939
-0.35022590	0.70045179	1.05067769	1.78760413
-0.35022590	1.05067769	-0.70045179	1.78760413
-0.35022590	1.05067769	0.00000000	2.92201378
-0.35022590	1.05067769	0.70045179	1.78760413
-0.35022590	1.40090358	-0.35022590	1.20756333
-0.35022590	1.40090358	0.35022590	1.20756333
0.00000000	-1.40090358	-0.70045179	1.01772291
0.00000000	-1.40090358	0.00000000	1.45513312
0.00000000	-1.40090358	0.70045179	1.01772291
0.00000000	-1.05067769	-1.05067769	1.20756333
0.00000000	-1.05067769	-0.35022590	2.92201378
0.00000000	-1.05067769	0.35022590	2.92201378
0.00000000	-1.05067769	1.05067769	1.20756333
0.00000000	-0.70045179	-1.40090358	1.01772291
0.00000000	-0.70045179	-0.70045179	3.94922149
0.00000000	-0.70045179	0.00000000	8.82839807
0.00000000	-0.70045179	0.70045179	3.94922149
0.00000000	-0.70045179	1.40090358	1.01772291
0.00000000	-0.35022590	-1.05067769	2.92201378
0.00000000	-0.35022590	-0.35022590	17.46236616
0.00000000	-0.35022590	0.35022590	17.46236616
0.00000000	-0.35022590	1.05067769	2.92201378
0.00000000	0.00000000	-1.40090358	1.45513312
0.00000000	0.00000000	-0.70045179	8.82839807
0.00000000	0.00000000	0.70045179	8.82839807
0.00000000	0.00000000	1.40090358	1.45513312
0.00000000	0.35022590	-1.05067769	2.92201378
0.00000000	0.35022590	-0.35022590	17.46236616
0.00000000	0.35022590	0.35022590	17.46236616
0.00000000	0.35022590	1.05067769	2.92201378
0.00000000	0.70045179	-1.40090358	1.01772291
0.00000000	0.70045179	-0.70045179	3.94922149
0.00000000	0.70045179	0.00000000	8.82839807
0.00000000	0.70045179	0.70045179	3.94922149
0.00000000	0.70045179	1.40090358	1.01772291
0.00000000	1.05067769	-1.05067769	1.20756333
0.00000000	1.05067769	-0.35022590	2.92201378
0.00000000	1.05067769	0.35022590	2.92201378
0.00000000	1.05067769	1.05067769	1.20756333
0.00000000	1.40090358	-0.70045179	1.01772291
0.00000000	1.40090358	0.00000000	1.45513312
0.00000000	1.40090358	0.70045179	1.01772291
0.35022590	-1.40090358	-0.35022590	1.20756333
0.35022590	-1.40090358	0.35022590	1.20756333
0.35022590	-1.05067769	-0.70045179	1.78760413
0.35022590	-1.05067769	0.00000000	2.92201378
0.35022590	-1.05067769	0.70045179	1.78760413
0.35022590	-0.70045179	-1.05067769	1.78760413
0.35022590	-0.70045179	-0.35022590	5.63748939
0.35022590	-0.70045179	0.35022590	5.63748939
0.35022590	-0.70045179	1.05067769	1.78760413
0.35022590	-0.35022590	-1.40090358	1.20756333
0.35022590	-0.35022590	-0.70045179	5.63748939
0.35022590	-0.35022590	0.00000000	17.46236616
0.35022590	-0.35022590	0.70045179	5.63748939
0.35022590	-0.35022590	1.40090358	1.20756333
0.35022590	0.00000000	-1.05067769	2.92201378
0.35022590	0.00000000	-0.35022590	17.46236616
0.35022590	0.00000000	0.35022590	17.46236616
0.35022590	0.00000000	1.05067769	2.92201378
0.35022590	0.35022590	-1.40090358	1.20756333
0.35022590	0.35022590	-0.70045179	5.63748939
0.35022590	0.35022590	0.00000000	17.46236616
0.35022590	0.35022590	0.70045179	5.63748939
0.35022590	0.35022590	1.40090358	1.20756333
0.35022590	0.70045179	-1.05067769	1.78760413
0.35022590	0.70045179	-0.35022590	5.63748939
0.35022590	0.70045179	0.35022590	5.63748939
0.35022590	0.70045179	1.05067769	1.78760413
0.35022590	1.05067769	-0.70045179	1.78760413
0.35022590	1.05067769	0.00000000	2.92201378
0.35022590	1.05067769	0.70045179	1.78760413
0.35022590	1.40090358	-0.35022590	1.20756333
0.35022590	1.40090358	0.35022590	1.20756333
0.70045179	-1.40090358	0.00000000	1.01772291
0.70045179	-1.05067769	-1.05067769	0.86863648
0.70045179	-1.05067769	-0.35022590	1.78760413
0.70045179	-1.05067769	0.35022590	1.78760413
0.70045179	-1.05067769	1.05067769	0.86863648
0.70045179	-0.70045179	-0.70045179	2.25025480
0.70045179	-0.70045179	0.00000000	3.94922149
0.70045179	-0.70045179	0.70045179	2.25025480
0.70045179	-0.35022590	-1.05067769	1.78760413
0.70045179	-0.35022590	-0.35022590	5.63748939
0.70045179	-0.35022590	0.35022590	5.63748939
0.70045179	-0.35022590	1.05067769	1.78760413
0.70045179	0.00000000	-1.40090358	1.01772291
0.70045179	0.00000000	-0.70045179	3.94922149
0.70045179	0.00000000	0.00000000	8.82839807
0.70045179	0.00000000	0.70045179	3.94922149
0.70045179	0.00000000	1.40090358	1.01772291
0.70045179	0.35022590	-1.05067769	1.78760413
0.70045179	0.35022590	-0.35022590	5.63748939
0.70045179	0.35022590	0.35022590	5.63748939
0.70045179	0.35022590	1.05067769	1.78760413
0.70045179	0.70045179	-0.70045179	2.25025480
0.70045179	0.70045179	0.00000000	3.94922149
0.70045179	0.70045179	0.70045179	2.25025480
0.70045179	1.05067769	-1.05067769	0.86863648
0.70045179	1.05067769	-0.35022590	1.78760413
0.70045179	1.05067769	0.35022590	1.78760413
0.70045179	1.05067769	1.05067769	0.86863648
0.70045179	1.40090358	0.00000000	1.01772291
1.05067769	-1.05067769	-0.70045179	0.86863648
1.05067769	-1.05067769	0.00000000	1.20756333
1.05067769	-1.05067769	0.70045179	0.86863648
1.05067769	-0.70045179	-1.05067769	0.86863648
1.05067769	-0.70045179	-0.35022590	1.78760413
1.05067769	-0.70045179	0.35022590	1.78760413
1.05067769	-0.70045179	1.05067769	0.86863648
1.05067769	-0.35022590	-0.70045179	1.78760413
1.05067769	-0.35022590	0.00000000	2.92201378
1.05067769	-0.35022590	0.70045179	1.78760413
1.05067769	0.00000000	-1.05067769	1.20756333
1.05067769	0.00000000	-0.35022590	2.92201378
1.05067769	0.00000000	0.35022590	2.92201378
1.05067769	0.00000000	1.05067769	1.20756333
1.05067769	0.35022590	-0.70045179	1.78760413
1.05067769	0.35022590	0.00000000	2.92201378
1.05067769	0.35022590	0.70045179	1.78760413
1.05067769	0.70045179	-1.05067769	0.86863648
1.05067769	0.70045179	-0.35022590	1.78760413
1.05067769	0.70045179	0.35022590	1.78760413
1.05067769	0.70045179	1.05067769	0.86863648
1.05067769	1.05067769	-0.70045179	0.86863648
1.05067769	1.05067769	0.00000000	1.20756333
1.05067769	1.05067769	0.70045179	0.86863648
1.40090358	-0.70045179	0.00000000	1.01772291
1.40090358	-0.35022590	-0.35022590	1.20756333
1.40090358	-0.35022590	0.35022590	1.20756333
1.40090358	0.00000000	-0.70045179	1.01772291
1.40090358	0.00000000	0.00000000	1.45513312
1.40090358	0.00000000	0.70045179	1.01772291
1.40090358	0.35022590	-0.35022590	1.20756333
1.40090358	0.35022590	0.35022590	1.20756333
1.40090358	0.70045179	0.00000000	1.01772291
