LAMMPS data file via write_data, version 24 Jan 2020, timestep = 0

2000 atoms
1 atom types

0.0000000000000000e+00 2.8553120000000000e+01 xlo xhi
0.0000000000000000e+00 2.8553120000000000e+01 ylo yhi
0.0000000000000000e+00 2.8553120000000000e+01 zlo zhi

Masses

1 55.845

Atoms # atomic

1 1 7.1382800000000002e-01 7.1382800000000002e-01 7.1382800000000002e-01 0 0 0
2 1 2.1414840000000002e+00 2.1414840000000002e+00 2.1414840000000002e+00 0 0 0
3 1 3.5691400000000000e+00 7.1382800000000002e-01 7.1382800000000002e-01 0 0 0
21 1 7.1382800000000002e-01 3.5691400000000000e+00 7.1382800000000002e-01 0 0 0
23 1 3.5691400000000000e+00 3.5691400000000000e+00 7.1382800000000002e-01 0 0 0
201 1 7.1382800000000002e-01 7.1382800000000002e-01 3.5691400000000000e+00 0 0 0
203 1 3.5691400000000000e+00 7.1382800000000002e-01 3.5691400000000000e+00 0 0 0
221 1 7.1382800000000002e-01 3.5691400000000000e+00 3.5691400000000000e+00 0 0 0
223 1 3.5691400000000000e+00 3.5691400000000000e+00 3.5691400000000000e+00 0 0 0
4 1 4.9967960000000007e+00 2.1414840000000002e+00 2.1414840000000002e+00 0 0 0
5 1 6.4244520000000005e+00 7.1382800000000002e-01 7.1382800000000002e-01 0 0 0
6 1 7.8521080000000003e+00 2.1414840000000002e+00 2.1414840000000002e+00 0 0 0
25 1 6.4244520000000005e+00 3.5691400000000000e+00 7.1382800000000002e-01 0 0 0
205 1 6.4244520000000005e+00 7.1382800000000002e-01 3.5691400000000000e+00 0 0 0
225 1 6.4244520000000005e+00 3.5691400000000000e+00 3.5691400000000000e+00 0 0 0
7 1 9.2797640000000001e+00 7.1382800000000002e-01 7.1382800000000002e-01 0 0 0
8 1 1.0707419999999999e+01 2.1414840000000002e+00 2.1414840000000002e+00 0 0 0
9 1 1.2135076000000000e+01 7.1382800000000002e-01 7.1382800000000002e-01 0 0 0
27 1 9.2797640000000001e+00 3.5691400000000000e+00 7.1382800000000002e-01 0 0 0
29 1 1.2135076000000000e+01 3.5691400000000000e+00 7.1382800000000002e-01 0 0 0
207 1 9.2797640000000001e+00 7.1382800000000002e-01 3.5691400000000000e+00 0 0 0
209 1 1.2135076000000000e+01 7.1382800000000002e-01 3.5691400000000000e+00 0 0 0
227 1 9.2797640000000001e+00 3.5691400000000000e+00 3.5691400000000000e+00 0 0 0
229 1 1.2135076000000000e+01 3.5691400000000000e+00 3.5691400000000000e+00 0 0 0
10 1 1.3562732000000000e+01 2.1414840000000002e+00 2.1414840000000002e+00 0 0 0
11 1 1.4990387999999999e+01 7.1382800000000002e-01 7.1382800000000002e-01 0 0 0
31 1 1.4990387999999999e+01 3.5691400000000000e+00 7.1382800000000002e-01 0 0 0
211 1 1.4990387999999999e+01 7.1382800000000002e-01 3.5691400000000000e+00 0 0 0
231 1 1.4990387999999999e+01 3.5691400000000000e+00 3.5691400000000000e+00 0 0 0
12 1 1.6418044000000002e+01 2.1414840000000002e+00 2.1414840000000002e+00 0 0 0
13 1 1.7845700000000001e+01 7.1382800000000002e-01 7.1382800000000002e-01 0 0 0
14 1 1.9273356000000000e+01 2.1414840000000002e+00 2.1414840000000002e+00 0 0 0
33 1 1.7845700000000001e+01 3.5691400000000000e+00 7.1382800000000002e-01 0 0 0
213 1 1.7845700000000001e+01 7.1382800000000002e-01 3.5691400000000000e+00 0 0 0
233 1 1.7845700000000001e+01 3.5691400000000000e+00 3.5691400000000000e+00 0 0 0
15 1 2.0701011999999999e+01 7.1382800000000002e-01 7.1382800000000002e-01 0 0 0
16 1 2.2128668000000001e+01 2.1414840000000002e+00 2.1414840000000002e+00 0 0 0
17 1 2.3556324000000000e+01 7.1382800000000002e-01 7.1382800000000002e-01 0 0 0
35 1 2.0701011999999999e+01 3.5691400000000000e+00 7.1382800000000002e-01 0 0 0
37 1 2.3556324000000000e+01 3.5691400000000000e+00 7.1382800000000002e-01 0 0 0
215 1 2.0701011999999999e+01 7.1382800000000002e-01 3.5691400000000000e+00 0 0 0
217 1 2.3556324000000000e+01 7.1382800000000002e-01 3.5691400000000000e+00 0 0 0
235 1 2.0701011999999999e+01 3.5691400000000000e+00 3.5691400000000000e+00 0 0 0
237 1 2.3556324000000000e+01 3.5691400000000000e+00 3.5691400000000000e+00 0 0 0
18 1 2.4983979999999999e+01 2.1414840000000002e+00 2.1414840000000002e+00 0 0 0
19 1 2.6411636000000001e+01 7.1382800000000002e-01 7.1382800000000002e-01 0 0 0
20 1 2.7839292000000000e+01 2.1414840000000002e+00 2.1414840000000002e+00 0 0 0
39 1 2.6411636000000001e+01 3.5691400000000000e+00 7.1382800000000002e-01 0 0 0
219 1 2.6411636000000001e+01 7.1382800000000002e-01 3.5691400000000000e+00 0 0 0
239 1 2.6411636000000001e+01 3.5691400000000000e+00 3.5691400000000000e+00 0 0 0
22 1 2.1414840000000002e+00 4.9967960000000007e+00 2.1414840000000002e+00 0 0 0
41 1 7.1382800000000002e-01 6.4244520000000005e+00 7.1382800000000002e-01 0 0 0
42 1 2.1414840000000002e+00 7.8521080000000003e+00 2.1414840000000002e+00 0 0 0
43 1 3.5691400000000000e+00 6.4244520000000005e+00 7.1382800000000002e-01 0 0 0
241 1 7.1382800000000002e-01 6.4244520000000005e+00 3.5691400000000000e+00 0 0 0
243 1 3.5691400000000000e+00 6.4244520000000005e+00 3.5691400000000000e+00 0 0 0
24 1 4.9967960000000007e+00 4.9967960000000007e+00 2.1414840000000002e+00 0 0 0
26 1 7.8521080000000003e+00 4.9967960000000007e+00 2.1414840000000002e+00 0 0 0
44 1 4.9967960000000007e+00 7.8521080000000003e+00 2.1414840000000002e+00 0 0 0
45 1 6.4244520000000005e+00 6.4244520000000005e+00 7.1382800000000002e-01 0 0 0
46 1 7.8521080000000003e+00 7.8521080000000003e+00 2.1414840000000002e+00 0 0 0
245 1 6.4244520000000005e+00 6.4244520000000005e+00 3.5691400000000000e+00 0 0 0
28 1 1.0707419999999999e+01 4.9967960000000007e+00 2.1414840000000002e+00 0 0 0
47 1 9.2797640000000001e+00 6.4244520000000005e+00 7.1382800000000002e-01 0 0 0
48 1 1.0707419999999999e+01 7.8521080000000003e+00 2.1414840000000002e+00 0 0 0
49 1 1.2135076000000000e+01 6.4244520000000005e+00 7.1382800000000002e-01 0 0 0
247 1 9.2797640000000001e+00 6.4244520000000005e+00 3.5691400000000000e+00 0 0 0
249 1 1.2135076000000000e+01 6.4244520000000005e+00 3.5691400000000000e+00 0 0 0
30 1 1.3562732000000000e+01 4.9967960000000007e+00 2.1414840000000002e+00 0 0 0
50 1 1.3562732000000000e+01 7.8521080000000003e+00 2.1414840000000002e+00 0 0 0
51 1 1.4990387999999999e+01 6.4244520000000005e+00 7.1382800000000002e-01 0 0 0
251 1 1.4990387999999999e+01 6.4244520000000005e+00 3.5691400000000000e+00 0 0 0
32 1 1.6418044000000002e+01 4.9967960000000007e+00 2.1414840000000002e+00 0 0 0
34 1 1.9273356000000000e+01 4.9967960000000007e+00 2.1414840000000002e+00 0 0 0
52 1 1.6418044000000002e+01 7.8521080000000003e+00 2.1414840000000002e+00 0 0 0
53 1 1.7845700000000001e+01 6.4244520000000005e+00 7.1382800000000002e-01 0 0 0
54 1 1.9273356000000000e+01 7.8521080000000003e+00 2.1414840000000002e+00 0 0 0
253 1 1.7845700000000001e+01 6.4244520000000005e+00 3.5691400000000000e+00 0 0 0
36 1 2.2128668000000001e+01 4.9967960000000007e+00 2.1414840000000002e+00 0 0 0
55 1 2.0701011999999999e+01 6.4244520000000005e+00 7.1382800000000002e-01 0 0 0
56 1 2.2128668000000001e+01 7.8521080000000003e+00 2.1414840000000002e+00 0 0 0
57 1 2.3556324000000000e+01 6.4244520000000005e+00 7.1382800000000002e-01 0 0 0
255 1 2.0701011999999999e+01 6.4244520000000005e+00 3.5691400000000000e+00 0 0 0
257 1 2.3556324000000000e+01 6.4244520000000005e+00 3.5691400000000000e+00 0 0 0
38 1 2.4983979999999999e+01 4.9967960000000007e+00 2.1414840000000002e+00 0 0 0
40 1 2.7839292000000000e+01 4.9967960000000007e+00 2.1414840000000002e+00 0 0 0
58 1 2.4983979999999999e+01 7.8521080000000003e+00 2.1414840000000002e+00 0 0 0
59 1 2.6411636000000001e+01 6.4244520000000005e+00 7.1382800000000002e-01 0 0 0
60 1 2.7839292000000000e+01 7.8521080000000003e+00 2.1414840000000002e+00 0 0 0
259 1 2.6411636000000001e+01 6.4244520000000005e+00 3.5691400000000000e+00 0 0 0
61 1 7.1382800000000002e-01 9.2797640000000001e+00 7.1382800000000002e-01 0 0 0
62 1 2.1414840000000002e+00 1.0707419999999999e+01 2.1414840000000002e+00 0 0 0
63 1 3.5691400000000000e+00 9.2797640000000001e+00 7.1382800000000002e-01 0 0 0
81 1 7.1382800000000002e-01 1.2135076000000000e+01 7.1382800000000002e-01 0 0 0
83 1 3.5691400000000000e+00 1.2135076000000000e+01 7.1382800000000002e-01 0 0 0
261 1 7.1382800000000002e-01 9.2797640000000001e+00 3.5691400000000000e+00 0 0 0
263 1 3.5691400000000000e+00 9.2797640000000001e+00 3.5691400000000000e+00 0 0 0
281 1 7.1382800000000002e-01 1.2135076000000000e+01 3.5691400000000000e+00 0 0 0
283 1 3.5691400000000000e+00 1.2135076000000000e+01 3.5691400000000000e+00 0 0 0
64 1 4.9967960000000007e+00 1.0707419999999999e+01 2.1414840000000002e+00 0 0 0
65 1 6.4244520000000005e+00 9.2797640000000001e+00 7.1382800000000002e-01 0 0 0
66 1 7.8521080000000003e+00 1.0707419999999999e+01 2.1414840000000002e+00 0 0 0
85 1 6.4244520000000005e+00 1.2135076000000000e+01 7.1382800000000002e-01 0 0 0
265 1 6.4244520000000005e+00 9.2797640000000001e+00 3.5691400000000000e+00 0 0 0
285 1 6.4244520000000005e+00 1.2135076000000000e+01 3.5691400000000000e+00 0 0 0
67 1 9.2797640000000001e+00 9.2797640000000001e+00 7.1382800000000002e-01 0 0 0
68 1 1.0707419999999999e+01 1.0707419999999999e+01 2.1414840000000002e+00 0 0 0
69 1 1.2135076000000000e+01 9.2797640000000001e+00 7.1382800000000002e-01 0 0 0
87 1 9.2797640000000001e+00 1.2135076000000000e+01 7.1382800000000002e-01 0 0 0
89 1 1.2135076000000000e+01 1.2135076000000000e+01 7.1382800000000002e-01 0 0 0
267 1 9.2797640000000001e+00 9.2797640000000001e+00 3.5691400000000000e+00 0 0 0
269 1 1.2135076000000000e+01 9.2797640000000001e+00 3.5691400000000000e+00 0 0 0
287 1 9.2797640000000001e+00 1.2135076000000000e+01 3.5691400000000000e+00 0 0 0
289 1 1.2135076000000000e+01 1.2135076000000000e+01 3.5691400000000000e+00 0 0 0
70 1 1.3562732000000000e+01 1.0707419999999999e+01 2.1414840000000002e+00 0 0 0
71 1 1.4990387999999999e+01 9.2797640000000001e+00 7.1382800000000002e-01 0 0 0
91 1 1.4990387999999999e+01 1.2135076000000000e+01 7.1382800000000002e-01 0 0 0
271 1 1.4990387999999999e+01 9.2797640000000001e+00 3.5691400000000000e+00 0 0 0
291 1 1.4990387999999999e+01 1.2135076000000000e+01 3.5691400000000000e+00 0 0 0
72 1 1.6418044000000002e+01 1.0707419999999999e+01 2.1414840000000002e+00 0 0 0
73 1 1.7845700000000001e+01 9.2797640000000001e+00 7.1382800000000002e-01 0 0 0
74 1 1.9273356000000000e+01 1.0707419999999999e+01 2.1414840000000002e+00 0 0 0
93 1 1.7845700000000001e+01 1.2135076000000000e+01 7.1382800000000002e-01 0 0 0
273 1 1.7845700000000001e+01 9.2797640000000001e+00 3.5691400000000000e+00 0 0 0
293 1 1.7845700000000001e+01 1.2135076000000000e+01 3.5691400000000000e+00 0 0 0
75 1 2.0701011999999999e+01 9.2797640000000001e+00 7.1382800000000002e-01 0 0 0
76 1 2.2128668000000001e+01 1.0707419999999999e+01 2.1414840000000002e+00 0 0 0
77 1 2.3556324000000000e+01 9.2797640000000001e+00 7.1382800000000002e-01 0 0 0
95 1 2.0701011999999999e+01 1.2135076000000000e+01 7.1382800000000002e-01 0 0 0
97 1 2.3556324000000000e+01 1.2135076000000000e+01 7.1382800000000002e-01 0 0 0
275 1 2.0701011999999999e+01 9.2797640000000001e+00 3.5691400000000000e+00 0 0 0
277 1 2.3556324000000000e+01 9.2797640000000001e+00 3.5691400000000000e+00 0 0 0
295 1 2.0701011999999999e+01 1.2135076000000000e+01 3.5691400000000000e+00 0 0 0
297 1 2.3556324000000000e+01 1.2135076000000000e+01 3.5691400000000000e+00 0 0 0
78 1 2.4983979999999999e+01 1.0707419999999999e+01 2.1414840000000002e+00 0 0 0
79 1 2.6411636000000001e+01 9.2797640000000001e+00 7.1382800000000002e-01 0 0 0
80 1 2.7839292000000000e+01 1.0707419999999999e+01 2.1414840000000002e+00 0 0 0
99 1 2.6411636000000001e+01 1.2135076000000000e+01 7.1382800000000002e-01 0 0 0
279 1 2.6411636000000001e+01 9.2797640000000001e+00 3.5691400000000000e+00 0 0 0
299 1 2.6411636000000001e+01 1.2135076000000000e+01 3.5691400000000000e+00 0 0 0
82 1 2.1414840000000002e+00 1.3562732000000000e+01 2.1414840000000002e+00 0 0 0
101 1 7.1382800000000002e-01 1.4990387999999999e+01 7.1382800000000002e-01 0 0 0
103 1 3.5691400000000000e+00 1.4990387999999999e+01 7.1382800000000002e-01 0 0 0
301 1 7.1382800000000002e-01 1.4990387999999999e+01 3.5691400000000000e+00 0 0 0
303 1 3.5691400000000000e+00 1.4990387999999999e+01 3.5691400000000000e+00 0 0 0
84 1 4.9967960000000007e+00 1.3562732000000000e+01 2.1414840000000002e+00 0 0 0
86 1 7.8521080000000003e+00 1.3562732000000000e+01 2.1414840000000002e+00 0 0 0
105 1 6.4244520000000005e+00 1.4990387999999999e+01 7.1382800000000002e-01 0 0 0
305 1 6.4244520000000005e+00 1.4990387999999999e+01 3.5691400000000000e+00 0 0 0
88 1 1.0707419999999999e+01 1.3562732000000000e+01 2.1414840000000002e+00 0 0 0
107 1 9.2797640000000001e+00 1.4990387999999999e+01 7.1382800000000002e-01 0 0 0
109 1 1.2135076000000000e+01 1.4990387999999999e+01 7.1382800000000002e-01 0 0 0
307 1 9.2797640000000001e+00 1.4990387999999999e+01 3.5691400000000000e+00 0 0 0
309 1 1.2135076000000000e+01 1.4990387999999999e+01 3.5691400000000000e+00 0 0 0
90 1 1.3562732000000000e+01 1.3562732000000000e+01 2.1414840000000002e+00 0 0 0
111 1 1.4990387999999999e+01 1.4990387999999999e+01 7.1382800000000002e-01 0 0 0
311 1 1.4990387999999999e+01 1.4990387999999999e+01 3.5691400000000000e+00 0 0 0
92 1 1.6418044000000002e+01 1.3562732000000000e+01 2.1414840000000002e+00 0 0 0
94 1 1.9273356000000000e+01 1.3562732000000000e+01 2.1414840000000002e+00 0 0 0
113 1 1.7845700000000001e+01 1.4990387999999999e+01 7.1382800000000002e-01 0 0 0
313 1 1.7845700000000001e+01 1.4990387999999999e+01 3.5691400000000000e+00 0 0 0
96 1 2.2128668000000001e+01 1.3562732000000000e+01 2.1414840000000002e+00 0 0 0
115 1 2.0701011999999999e+01 1.4990387999999999e+01 7.1382800000000002e-01 0 0 0
117 1 2.3556324000000000e+01 1.4990387999999999e+01 7.1382800000000002e-01 0 0 0
315 1 2.0701011999999999e+01 1.4990387999999999e+01 3.5691400000000000e+00 0 0 0
317 1 2.3556324000000000e+01 1.4990387999999999e+01 3.5691400000000000e+00 0 0 0
98 1 2.4983979999999999e+01 1.3562732000000000e+01 2.1414840000000002e+00 0 0 0
100 1 2.7839292000000000e+01 1.3562732000000000e+01 2.1414840000000002e+00 0 0 0
119 1 2.6411636000000001e+01 1.4990387999999999e+01 7.1382800000000002e-01 0 0 0
319 1 2.6411636000000001e+01 1.4990387999999999e+01 3.5691400000000000e+00 0 0 0
102 1 2.1414840000000002e+00 1.6418044000000002e+01 2.1414840000000002e+00 0 0 0
121 1 7.1382800000000002e-01 1.7845700000000001e+01 7.1382800000000002e-01 0 0 0
122 1 2.1414840000000002e+00 1.9273356000000000e+01 2.1414840000000002e+00 0 0 0
123 1 3.5691400000000000e+00 1.7845700000000001e+01 7.1382800000000002e-01 0 0 0
321 1 7.1382800000000002e-01 1.7845700000000001e+01 3.5691400000000000e+00 0 0 0
323 1 3.5691400000000000e+00 1.7845700000000001e+01 3.5691400000000000e+00 0 0 0
104 1 4.9967960000000007e+00 1.6418044000000002e+01 2.1414840000000002e+00 0 0 0
106 1 7.8521080000000003e+00 1.6418044000000002e+01 2.1414840000000002e+00 0 0 0
124 1 4.9967960000000007e+00 1.9273356000000000e+01 2.1414840000000002e+00 0 0 0
125 1 6.4244520000000005e+00 1.7845700000000001e+01 7.1382800000000002e-01 0 0 0
126 1 7.8521080000000003e+00 1.9273356000000000e+01 2.1414840000000002e+00 0 0 0
325 1 6.4244520000000005e+00 1.7845700000000001e+01 3.5691400000000000e+00 0 0 0
108 1 1.0707419999999999e+01 1.6418044000000002e+01 2.1414840000000002e+00 0 0 0
127 1 9.2797640000000001e+00 1.7845700000000001e+01 7.1382800000000002e-01 0 0 0
128 1 1.0707419999999999e+01 1.9273356000000000e+01 2.1414840000000002e+00 0 0 0
129 1 1.2135076000000000e+01 1.7845700000000001e+01 7.1382800000000002e-01 0 0 0
327 1 9.2797640000000001e+00 1.7845700000000001e+01 3.5691400000000000e+00 0 0 0
329 1 1.2135076000000000e+01 1.7845700000000001e+01 3.5691400000000000e+00 0 0 0
110 1 1.3562732000000000e+01 1.6418044000000002e+01 2.1414840000000002e+00 0 0 0
130 1 1.3562732000000000e+01 1.9273356000000000e+01 2.1414840000000002e+00 0 0 0
131 1 1.4990387999999999e+01 1.7845700000000001e+01 7.1382800000000002e-01 0 0 0
331 1 1.4990387999999999e+01 1.7845700000000001e+01 3.5691400000000000e+00 0 0 0
112 1 1.6418044000000002e+01 1.6418044000000002e+01 2.1414840000000002e+00 0 0 0
114 1 1.9273356000000000e+01 1.6418044000000002e+01 2.1414840000000002e+00 0 0 0
132 1 1.6418044000000002e+01 1.9273356000000000e+01 2.1414840000000002e+00 0 0 0
133 1 1.7845700000000001e+01 1.7845700000000001e+01 7.1382800000000002e-01 0 0 0
134 1 1.9273356000000000e+01 1.9273356000000000e+01 2.1414840000000002e+00 0 0 0
333 1 1.7845700000000001e+01 1.7845700000000001e+01 3.5691400000000000e+00 0 0 0
116 1 2.2128668000000001e+01 1.6418044000000002e+01 2.1414840000000002e+00 0 0 0
135 1 2.0701011999999999e+01 1.7845700000000001e+01 7.1382800000000002e-01 0 0 0
136 1 2.2128668000000001e+01 1.9273356000000000e+01 2.1414840000000002e+00 0 0 0
137 1 2.3556324000000000e+01 1.7845700000000001e+01 7.1382800000000002e-01 0 0 0
335 1 2.0701011999999999e+01 1.7845700000000001e+01 3.5691400000000000e+00 0 0 0
337 1 2.3556324000000000e+01 1.7845700000000001e+01 3.5691400000000000e+00 0 0 0
118 1 2.4983979999999999e+01 1.6418044000000002e+01 2.1414840000000002e+00 0 0 0
120 1 2.7839292000000000e+01 1.6418044000000002e+01 2.1414840000000002e+00 0 0 0
138 1 2.4983979999999999e+01 1.9273356000000000e+01 2.1414840000000002e+00 0 0 0
139 1 2.6411636000000001e+01 1.7845700000000001e+01 7.1382800000000002e-01 0 0 0
140 1 2.7839292000000000e+01 1.9273356000000000e+01 2.1414840000000002e+00 0 0 0
339 1 2.6411636000000001e+01 1.7845700000000001e+01 3.5691400000000000e+00 0 0 0
141 1 7.1382800000000002e-01 2.0701011999999999e+01 7.1382800000000002e-01 0 0 0
142 1 2.1414840000000002e+00 2.2128668000000001e+01 2.1414840000000002e+00 0 0 0
143 1 3.5691400000000000e+00 2.0701011999999999e+01 7.1382800000000002e-01 0 0 0
161 1 7.1382800000000002e-01 2.3556324000000000e+01 7.1382800000000002e-01 0 0 0
163 1 3.5691400000000000e+00 2.3556324000000000e+01 7.1382800000000002e-01 0 0 0
341 1 7.1382800000000002e-01 2.0701011999999999e+01 3.5691400000000000e+00 0 0 0
343 1 3.5691400000000000e+00 2.0701011999999999e+01 3.5691400000000000e+00 0 0 0
361 1 7.1382800000000002e-01 2.3556324000000000e+01 3.5691400000000000e+00 0 0 0
363 1 3.5691400000000000e+00 2.3556324000000000e+01 3.5691400000000000e+00 0 0 0
144 1 4.9967960000000007e+00 2.2128668000000001e+01 2.1414840000000002e+00 0 0 0
145 1 6.4244520000000005e+00 2.0701011999999999e+01 7.1382800000000002e-01 0 0 0
146 1 7.8521080000000003e+00 2.2128668000000001e+01 2.1414840000000002e+00 0 0 0
165 1 6.4244520000000005e+00 2.3556324000000000e+01 7.1382800000000002e-01 0 0 0
345 1 6.4244520000000005e+00 2.0701011999999999e+01 3.5691400000000000e+00 0 0 0
365 1 6.4244520000000005e+00 2.3556324000000000e+01 3.5691400000000000e+00 0 0 0
147 1 9.2797640000000001e+00 2.0701011999999999e+01 7.1382800000000002e-01 0 0 0
148 1 1.0707419999999999e+01 2.2128668000000001e+01 2.1414840000000002e+00 0 0 0
149 1 1.2135076000000000e+01 2.0701011999999999e+01 7.1382800000000002e-01 0 0 0
167 1 9.2797640000000001e+00 2.3556324000000000e+01 7.1382800000000002e-01 0 0 0
169 1 1.2135076000000000e+01 2.3556324000000000e+01 7.1382800000000002e-01 0 0 0
347 1 9.2797640000000001e+00 2.0701011999999999e+01 3.5691400000000000e+00 0 0 0
349 1 1.2135076000000000e+01 2.0701011999999999e+01 3.5691400000000000e+00 0 0 0
367 1 9.2797640000000001e+00 2.3556324000000000e+01 3.5691400000000000e+00 0 0 0
369 1 1.2135076000000000e+01 2.3556324000000000e+01 3.5691400000000000e+00 0 0 0
150 1 1.3562732000000000e+01 2.2128668000000001e+01 2.1414840000000002e+00 0 0 0
151 1 1.4990387999999999e+01 2.0701011999999999e+01 7.1382800000000002e-01 0 0 0
171 1 1.4990387999999999e+01 2.3556324000000000e+01 7.1382800000000002e-01 0 0 0
351 1 1.4990387999999999e+01 2.0701011999999999e+01 3.5691400000000000e+00 0 0 0
371 1 1.4990387999999999e+01 2.3556324000000000e+01 3.5691400000000000e+00 0 0 0
152 1 1.6418044000000002e+01 2.2128668000000001e+01 2.1414840000000002e+00 0 0 0
153 1 1.7845700000000001e+01 2.0701011999999999e+01 7.1382800000000002e-01 0 0 0
154 1 1.9273356000000000e+01 2.2128668000000001e+01 2.1414840000000002e+00 0 0 0
173 1 1.7845700000000001e+01 2.3556324000000000e+01 7.1382800000000002e-01 0 0 0
353 1 1.7845700000000001e+01 2.0701011999999999e+01 3.5691400000000000e+00 0 0 0
373 1 1.7845700000000001e+01 2.3556324000000000e+01 3.5691400000000000e+00 0 0 0
155 1 2.0701011999999999e+01 2.0701011999999999e+01 7.1382800000000002e-01 0 0 0
156 1 2.2128668000000001e+01 2.2128668000000001e+01 2.1414840000000002e+00 0 0 0
157 1 2.3556324000000000e+01 2.0701011999999999e+01 7.1382800000000002e-01 0 0 0
175 1 2.0701011999999999e+01 2.3556324000000000e+01 7.1382800000000002e-01 0 0 0
177 1 2.3556324000000000e+01 2.3556324000000000e+01 7.1382800000000002e-01 0 0 0
355 1 2.0701011999999999e+01 2.0701011999999999e+01 3.5691400000000000e+00 0 0 0
357 1 2.3556324000000000e+01 2.0701011999999999e+01 3.5691400000000000e+00 0 0 0
375 1 2.0701011999999999e+01 2.3556324000000000e+01 3.5691400000000000e+00 0 0 0
377 1 2.3556324000000000e+01 2.3556324000000000e+01 3.5691400000000000e+00 0 0 0
158 1 2.4983979999999999e+01 2.2128668000000001e+01 2.1414840000000002e+00 0 0 0
159 1 2.6411636000000001e+01 2.0701011999999999e+01 7.1382800000000002e-01 0 0 0
160 1 2.7839292000000000e+01 2.2128668000000001e+01 2.1414840000000002e+00 0 0 0
179 1 2.6411636000000001e+01 2.3556324000000000e+01 7.1382800000000002e-01 0 0 0
359 1 2.6411636000000001e+01 2.0701011999999999e+01 3.5691400000000000e+00 0 0 0
379 1 2.6411636000000001e+01 2.3556324000000000e+01 3.5691400000000000e+00 0 0 0
162 1 2.1414840000000002e+00 2.4983979999999999e+01 2.1414840000000002e+00 0 0 0
181 1 7.1382800000000002e-01 2.6411636000000001e+01 7.1382800000000002e-01 0 0 0
182 1 2.1414840000000002e+00 2.7839292000000000e+01 2.1414840000000002e+00 0 0 0
183 1 3.5691400000000000e+00 2.6411636000000001e+01 7.1382800000000002e-01 0 0 0
381 1 7.1382800000000002e-01 2.6411636000000001e+01 3.5691400000000000e+00 0 0 0
383 1 3.5691400000000000e+00 2.6411636000000001e+01 3.5691400000000000e+00 0 0 0
164 1 4.9967960000000007e+00 2.4983979999999999e+01 2.1414840000000002e+00 0 0 0
166 1 7.8521080000000003e+00 2.4983979999999999e+01 2.1414840000000002e+00 0 0 0
184 1 4.9967960000000007e+00 2.7839292000000000e+01 2.1414840000000002e+00 0 0 0
185 1 6.4244520000000005e+00 2.6411636000000001e+01 7.1382800000000002e-01 0 0 0
186 1 7.8521080000000003e+00 2.7839292000000000e+01 2.1414840000000002e+00 0 0 0
385 1 6.4244520000000005e+00 2.6411636000000001e+01 3.5691400000000000e+00 0 0 0
168 1 1.0707419999999999e+01 2.4983979999999999e+01 2.1414840000000002e+00 0 0 0
187 1 9.2797640000000001e+00 2.6411636000000001e+01 7.1382800000000002e-01 0 0 0
188 1 1.0707419999999999e+01 2.7839292000000000e+01 2.1414840000000002e+00 0 0 0
189 1 1.2135076000000000e+01 2.6411636000000001e+01 7.1382800000000002e-01 0 0 0
387 1 9.2797640000000001e+00 2.6411636000000001e+01 3.5691400000000000e+00 0 0 0
389 1 1.2135076000000000e+01 2.6411636000000001e+01 3.5691400000000000e+00 0 0 0
170 1 1.3562732000000000e+01 2.4983979999999999e+01 2.1414840000000002e+00 0 0 0
190 1 1.3562732000000000e+01 2.7839292000000000e+01 2.1414840000000002e+00 0 0 0
191 1 1.4990387999999999e+01 2.6411636000000001e+01 7.1382800000000002e-01 0 0 0
391 1 1.4990387999999999e+01 2.6411636000000001e+01 3.5691400000000000e+00 0 0 0
172 1 1.6418044000000002e+01 2.4983979999999999e+01 2.1414840000000002e+00 0 0 0
174 1 1.9273356000000000e+01 2.4983979999999999e+01 2.1414840000000002e+00 0 0 0
192 1 1.6418044000000002e+01 2.7839292000000000e+01 2.1414840000000002e+00 0 0 0
193 1 1.7845700000000001e+01 2.6411636000000001e+01 7.1382800000000002e-01 0 0 0
194 1 1.9273356000000000e+01 2.7839292000000000e+01 2.1414840000000002e+00 0 0 0
393 1 1.7845700000000001e+01 2.6411636000000001e+01 3.5691400000000000e+00 0 0 0
176 1 2.2128668000000001e+01 2.4983979999999999e+01 2.1414840000000002e+00 0 0 0
195 1 2.0701011999999999e+01 2.6411636000000001e+01 7.1382800000000002e-01 0 0 0
196 1 2.2128668000000001e+01 2.7839292000000000e+01 2.1414840000000002e+00 0 0 0
197 1 2.3556324000000000e+01 2.6411636000000001e+01 7.1382800000000002e-01 0 0 0
395 1 2.0701011999999999e+01 2.6411636000000001e+01 3.5691400000000000e+00 0 0 0
397 1 2.3556324000000000e+01 2.6411636000000001e+01 3.5691400000000000e+00 0 0 0
178 1 2.4983979999999999e+01 2.4983979999999999e+01 2.1414840000000002e+00 0 0 0
180 1 2.7839292000000000e+01 2.4983979999999999e+01 2.1414840000000002e+00 0 0 0
198 1 2.4983979999999999e+01 2.7839292000000000e+01 2.1414840000000002e+00 0 0 0
199 1 2.6411636000000001e+01 2.6411636000000001e+01 7.1382800000000002e-01 0 0 0
200 1 2.7839292000000000e+01 2.7839292000000000e+01 2.1414840000000002e+00 0 0 0
399 1 2.6411636000000001e+01 2.6411636000000001e+01 3.5691400000000000e+00 0 0 0
202 1 2.1414840000000002e+00 2.1414840000000002e+00 4.9967960000000007e+00 0 0 0
401 1 7.1382800000000002e-01 7.1382800000000002e-01 6.4244520000000005e+00 0 0 0
402 1 2.1414840000000002e+00 2.1414840000000002e+00 7.8521080000000003e+00 0 0 0
403 1 3.5691400000000000e+00 7.1382800000000002e-01 6.4244520000000005e+00 0 0 0
421 1 7.1382800000000002e-01 3.5691400000000000e+00 6.4244520000000005e+00 0 0 0
423 1 3.5691400000000000e+00 3.5691400000000000e+00 6.4244520000000005e+00 0 0 0
204 1 4.9967960000000007e+00 2.1414840000000002e+00 4.9967960000000007e+00 0 0 0
206 1 7.8521080000000003e+00 2.1414840000000002e+00 4.9967960000000007e+00 0 0 0
404 1 4.9967960000000007e+00 2.1414840000000002e+00 7.8521080000000003e+00 0 0 0
405 1 6.4244520000000005e+00 7.1382800000000002e-01 6.4244520000000005e+00 0 0 0
406 1 7.8521080000000003e+00 2.1414840000000002e+00 7.8521080000000003e+00 0 0 0
425 1 6.4244520000000005e+00 3.5691400000000000e+00 6.4244520000000005e+00 0 0 0
208 1 1.0707419999999999e+01 2.1414840000000002e+00 4.9967960000000007e+00 0 0 0
407 1 9.2797640000000001e+00 7.1382800000000002e-01 6.4244520000000005e+00 0 0 0
408 1 1.0707419999999999e+01 2.1414840000000002e+00 7.8521080000000003e+00 0 0 0
409 1 1.2135076000000000e+01 7.1382800000000002e-01 6.4244520000000005e+00 0 0 0
427 1 9.2797640000000001e+00 3.5691400000000000e+00 6.4244520000000005e+00 0 0 0
429 1 1.2135076000000000e+01 3.5691400000000000e+00 6.4244520000000005e+00 0 0 0
210 1 1.3562732000000000e+01 2.1414840000000002e+00 4.9967960000000007e+00 0 0 0
410 1 1.3562732000000000e+01 2.1414840000000002e+00 7.8521080000000003e+00 0 0 0
411 1 1.4990387999999999e+01 7.1382800000000002e-01 6.4244520000000005e+00 0 0 0
431 1 1.4990387999999999e+01 3.5691400000000000e+00 6.4244520000000005e+00 0 0 0
212 1 1.6418044000000002e+01 2.1414840000000002e+00 4.9967960000000007e+00 0 0 0
214 1 1.9273356000000000e+01 2.1414840000000002e+00 4.9967960000000007e+00 0 0 0
412 1 1.6418044000000002e+01 2.1414840000000002e+00 7.8521080000000003e+00 0 0 0
413 1 1.7845700000000001e+01 7.1382800000000002e-01 6.4244520000000005e+00 0 0 0
414 1 1.9273356000000000e+01 2.1414840000000002e+00 7.8521080000000003e+00 0 0 0
433 1 1.7845700000000001e+01 3.5691400000000000e+00 6.4244520000000005e+00 0 0 0
216 1 2.2128668000000001e+01 2.1414840000000002e+00 4.9967960000000007e+00 0 0 0
415 1 2.0701011999999999e+01 7.1382800000000002e-01 6.4244520000000005e+00 0 0 0
416 1 2.2128668000000001e+01 2.1414840000000002e+00 7.8521080000000003e+00 0 0 0
417 1 2.3556324000000000e+01 7.1382800000000002e-01 6.4244520000000005e+00 0 0 0
435 1 2.0701011999999999e+01 3.5691400000000000e+00 6.4244520000000005e+00 0 0 0
437 1 2.3556324000000000e+01 3.5691400000000000e+00 6.4244520000000005e+00 0 0 0
218 1 2.4983979999999999e+01 2.1414840000000002e+00 4.9967960000000007e+00 0 0 0
220 1 2.7839292000000000e+01 2.1414840000000002e+00 4.9967960000000007e+00 0 0 0
418 1 2.4983979999999999e+01 2.1414840000000002e+00 7.8521080000000003e+00 0 0 0
419 1 2.6411636000000001e+01 7.1382800000000002e-01 6.4244520000000005e+00 0 0 0
420 1 2.7839292000000000e+01 2.1414840000000002e+00 7.8521080000000003e+00 0 0 0
439 1 2.6411636000000001e+01 3.5691400000000000e+00 6.4244520000000005e+00 0 0 0
222 1 2.1414840000000002e+00 4.9967960000000007e+00 4.9967960000000007e+00 0 0 0
242 1 2.1414840000000002e+00 7.8521080000000003e+00 4.9967960000000007e+00 0 0 0
422 1 2.1414840000000002e+00 4.9967960000000007e+00 7.8521080000000003e+00 0 0 0
441 1 7.1382800000000002e-01 6.4244520000000005e+00 6.4244520000000005e+00 0 0 0
442 1 2.1414840000000002e+00 7.8521080000000003e+00 7.8521080000000003e+00 0 0 0
443 1 3.5691400000000000e+00 6.4244520000000005e+00 6.4244520000000005e+00 0 0 0
224 1 4.9967960000000007e+00 4.9967960000000007e+00 4.9967960000000007e+00 0 0 0
226 1 7.8521080000000003e+00 4.9967960000000007e+00 4.9967960000000007e+00 0 0 0
244 1 4.9967960000000007e+00 7.8521080000000003e+00 4.9967960000000007e+00 0 0 0
246 1 7.8521080000000003e+00 7.8521080000000003e+00 4.9967960000000007e+00 0 0 0
424 1 4.9967960000000007e+00 4.9967960000000007e+00 7.8521080000000003e+00 0 0 0
426 1 7.8521080000000003e+00 4.9967960000000007e+00 7.8521080000000003e+00 0 0 0
444 1 4.9967960000000007e+00 7.8521080000000003e+00 7.8521080000000003e+00 0 0 0
445 1 6.4244520000000005e+00 6.4244520000000005e+00 6.4244520000000005e+00 0 0 0
446 1 7.8521080000000003e+00 7.8521080000000003e+00 7.8521080000000003e+00 0 0 0
228 1 1.0707419999999999e+01 4.9967960000000007e+00 4.9967960000000007e+00 0 0 0
248 1 1.0707419999999999e+01 7.8521080000000003e+00 4.9967960000000007e+00 0 0 0
428 1 1.0707419999999999e+01 4.9967960000000007e+00 7.8521080000000003e+00 0 0 0
447 1 9.2797640000000001e+00 6.4244520000000005e+00 6.4244520000000005e+00 0 0 0
448 1 1.0707419999999999e+01 7.8521080000000003e+00 7.8521080000000003e+00 0 0 0
449 1 1.2135076000000000e+01 6.4244520000000005e+00 6.4244520000000005e+00 0 0 0
230 1 1.3562732000000000e+01 4.9967960000000007e+00 4.9967960000000007e+00 0 0 0
250 1 1.3562732000000000e+01 7.8521080000000003e+00 4.9967960000000007e+00 0 0 0
430 1 1.3562732000000000e+01 4.9967960000000007e+00 7.8521080000000003e+00 0 0 0
450 1 1.3562732000000000e+01 7.8521080000000003e+00 7.8521080000000003e+00 0 0 0
451 1 1.4990387999999999e+01 6.4244520000000005e+00 6.4244520000000005e+00 0 0 0
232 1 1.6418044000000002e+01 4.9967960000000007e+00 4.9967960000000007e+00 0 0 0
234 1 1.9273356000000000e+01 4.9967960000000007e+00 4.9967960000000007e+00 0 0 0