Position data Generated by SPaMD
2000	atoms
1	atom types
0.000000		28.553000	xlo xhi
0.000000		28.553000	ylo yhi
0.000000		28.553000	zlo zhi

Atoms

1	1	0.000000	0.000000	0.000000
2	1	1.427650	1.427650	1.427650
3	1	0.000000	0.000000	2.855300
4	1	1.427650	1.427650	4.282950
5	1	0.000000	0.000000	5.710600
6	1	1.427650	1.427650	7.138250
7	1	0.000000	0.000000	8.565900
8	1	1.427650	1.427650	9.993550
9	1	0.000000	0.000000	11.421200
10	1	1.427650	1.427650	12.848850
11	1	0.000000	0.000000	14.276500
12	1	1.427650	1.427650	15.704150
13	1	0.000000	0.000000	17.131800
14	1	1.427650	1.427650	18.559450
15	1	0.000000	0.000000	19.987100
16	1	1.427650	1.427650	21.414750
17	1	0.000000	0.000000	22.842400
18	1	1.427650	1.427650	24.270050
19	1	0.000000	0.000000	25.697700
20	1	1.427650	1.427650	27.125350
21	1	0.000000	2.855300	0.000000
22	1	1.427650	4.282950	1.427650
23	1	0.000000	2.855300	2.855300
24	1	1.427650	4.282950	4.282950
25	1	0.000000	2.855300	5.710600
26	1	1.427650	4.282950	7.138250
27	1	0.000000	2.855300	8.565900
28	1	1.427650	4.282950	9.993550
29	1	0.000000	2.855300	11.421200
30	1	1.427650	4.282950	12.848850
31	1	0.000000	2.855300	14.276500
32	1	1.427650	4.282950	15.704150
33	1	0.000000	2.855300	17.131800
34	1	1.427650	4.282950	18.559450
35	1	0.000000	2.855300	19.987100
36	1	1.427650	4.282950	21.414750
37	1	0.000000	2.855300	22.842400
38	1	1.427650	4.282950	24.270050
39	1	0.000000	2.855300	25.697700
40	1	1.427650	4.282950	27.125350
41	1	0.000000	5.710600	0.000000
42	1	1.427650	7.138250	1.427650
43	1	0.000000	5.710600	2.855300
44	1	1.427650	7.138250	4.282950
45	1	0.000000	5.710600	5.710600
46	1	1.427650	7.138250	7.138250
47	1	0.000000	5.710600	8.565900
48	1	1.427650	7.138250	9.993550
49	1	0.000000	5.710600	11.421200
50	1	1.427650	7.138250	12.848850
51	1	0.000000	5.710600	14.276500
52	1	1.427650	7.138250	15.704150
53	1	0.000000	5.710600	17.131800
54	1	1.427650	7.138250	18.559450
55	1	0.000000	5.710600	19.987100
56	1	1.427650	7.138250	21.414750
57	1	0.000000	5.710600	22.842400
58	1	1.427650	7.138250	24.270050
59	1	0.000000	5.710600	25.697700
60	1	1.427650	7.138250	27.125350
61	1	0.000000	8.565900	0.000000
62	1	1.427650	9.993550	1.427650
63	1	0.000000	8.565900	2.855300
64	1	1.427650	9.993550	4.282950
65	1	0.000000	8.565900	5.710600
66	1	1.427650	9.993550	7.138250
67	1	0.000000	8.565900	8.565900
68	1	1.427650	9.993550	9.993550
69	1	0.000000	8.565900	11.421200
70	1	1.427650	9.993550	12.848850
71	1	0.000000	8.565900	14.276500
72	1	1.427650	9.993550	15.704150
73	1	0.000000	8.565900	17.131800
74	1	1.427650	9.993550	18.559450
75	1	0.000000	8.565900	19.987100
76	1	1.427650	9.993550	21.414750
77	1	0.000000	8.565900	22.842400
78	1	1.427650	9.993550	24.270050
79	1	0.000000	8.565900	25.697700
80	1	1.427650	9.993550	27.125350
81	1	0.000000	11.421200	0.000000
82	1	1.427650	12.848850	1.427650
83	1	0.000000	11.421200	2.855300
84	1	1.427650	12.848850	4.282950
85	1	0.000000	11.421200	5.710600
86	1	1.427650	12.848850	7.138250
87	1	0.000000	11.421200	8.565900
88	1	1.427650	12.848850	9.993550
89	1	0.000000	11.421200	11.421200
90	1	1.427650	12.848850	12.848850
91	1	0.000000	11.421200	14.276500
92	1	1.427650	12.848850	15.704150
93	1	0.000000	11.421200	17.131800
94	1	1.427650	12.848850	18.559450
95	1	0.000000	11.421200	19.987100
96	1	1.427650	12.848850	21.414750
97	1	0.000000	11.421200	22.842400
98	1	1.427650	12.848850	24.270050
99	1	0.000000	11.421200	25.697700
100	1	1.427650	12.848850	27.125350
101	1	0.000000	14.276500	0.000000
102	1	1.427650	15.704150	1.427650
103	1	0.000000	14.276500	2.855300
104	1	1.427650	15.704150	4.282950
105	1	0.000000	14.276500	5.710600
106	1	1.427650	15.704150	7.138250
107	1	0.000000	14.276500	8.565900
108	1	1.427650	15.704150	9.993550
109	1	0.000000	14.276500	11.421200
110	1	1.427650	15.704150	12.848850
111	1	0.000000	14.276500	14.276500
112	1	1.427650	15.704150	15.704150
113	1	0.000000	14.276500	17.131800
114	1	1.427650	15.704150	18.559450
115	1	0.000000	14.276500	19.987100
116	1	1.427650	15.704150	21.414750
117	1	0.000000	14.276500	22.842400
118	1	1.427650	15.704150	24.270050
119	1	0.000000	14.276500	25.697700
120	1	1.427650	15.704150	27.125350
121	1	0.000000	17.131800	0.000000
122	1	1.427650	18.559450	1.427650
123	1	0.000000	17.131800	2.855300
124	1	1.427650	18.559450	4.282950
125	1	0.000000	17.131800	5.710600
126	1	1.427650	18.559450	7.138250
127	1	0.000000	17.131800	8.565900
128	1	1.427650	18.559450	9.993550
129	1	0.000000	17.131800	11.421200
130	1	1.427650	18.559450	12.848850
131	1	0.000000	17.131800	14.276500
132	1	1.427650	18.559450	15.704150
133	1	0.000000	17.131800	17.131800
134	1	1.427650	18.559450	18.559450
135	1	0.000000	17.131800	19.987100
136	1	1.427650	18.559450	21.414750
137	1	0.000000	17.131800	22.842400
138	1	1.427650	18.559450	24.270050
139	1	0.000000	17.131800	25.697700
140	1	1.427650	18.559450	27.125350
141	1	0.000000	19.987100	0.000000
142	1	1.427650	21.414750	1.427650
143	1	0.000000	19.987100	2.855300
144	1	1.427650	21.414750	4.282950
145	1	0.000000	19.987100	5.710600
146	1	1.427650	21.414750	7.138250
147	1	0.000000	19.987100	8.565900
148	1	1.427650	21.414750	9.993550
149	1	0.000000	19.987100	11.421200
150	1	1.427650	21.414750	12.848850
151	1	0.000000	19.987100	14.276500
152	1	1.427650	21.414750	15.704150
153	1	0.000000	19.987100	17.131800
154	1	1.427650	21.414750	18.559450
155	1	0.000000	19.987100	19.987100
156	1	1.427650	21.414750	21.414750
157	1	0.000000	19.987100	22.842400
158	1	1.427650	21.414750	24.270050
159	1	0.000000	19.987100	25.697700
160	1	1.427650	21.414750	27.125350
161	1	0.000000	22.842400	0.000000
162	1	1.427650	24.270050	1.427650
163	1	0.000000	22.842400	2.855300
164	1	1.427650	24.270050	4.282950
165	1	0.000000	22.842400	5.710600
166	1	1.427650	24.270050	7.138250
167	1	0.000000	22.842400	8.565900
168	1	1.427650	24.270050	9.993550
169	1	0.000000	22.842400	11.421200
170	1	1.427650	24.270050	12.848850
171	1	0.000000	22.842400	14.276500
172	1	1.427650	24.270050	15.704150
173	1	0.000000	22.842400	17.131800
174	1	1.427650	24.270050	18.559450
175	1	0.000000	22.842400	19.987100
176	1	1.427650	24.270050	21.414750
177	1	0.000000	22.842400	22.842400
178	1	1.427650	24.270050	24.270050
179	1	0.000000	22.842400	25.697700
180	1	1.427650	24.270050	27.125350
181	1	0.000000	25.697700	0.000000
182	1	1.427650	27.125350	1.427650
183	1	0.000000	25.697700	2.855300
184	1	1.427650	27.125350	4.282950
185	1	0.000000	25.697700	5.710600
186	1	1.427650	27.125350	7.138250
187	1	0.000000	25.697700	8.565900
188	1	1.427650	27.125350	9.993550
189	1	0.000000	25.697700	11.421200
190	1	1.427650	27.125350	12.848850
191	1	0.000000	25.697700	14.276500
192	1	1.427650	27.125350	15.704150
193	1	0.000000	25.697700	17.131800
194	1	1.427650	27.125350	18.559450
195	1	0.000000	25.697700	19.987100
196	1	1.427650	27.125350	21.414750
197	1	0.000000	25.697700	22.842400
198	1	1.427650	27.125350	24.270050
199	1	0.000000	25.697700	25.697700
200	1	1.427650	27.125350	27.125350
201	1	2.855300	0.000000	0.000000
202	1	4.282950	1.427650	1.427650
203	1	2.855300	0.000000	2.855300
204	1	4.282950	1.427650	4.282950
205	1	2.855300	0.000000	5.710600
206	1	4.282950	1.427650	7.138250
207	1	2.855300	0.000000	8.565900
208	1	4.282950	1.427650	9.993550
209	1	2.855300	0.000000	11.421200
210	1	4.282950	1.427650	12.848850
211	1	2.855300	0.000000	14.276500
212	1	4.282950	1.427650	15.704150
213	1	2.855300	0.000000	17.131800
214	1	4.282950	1.427650	18.559450
215	1	2.855300	0.000000	19.987100
216	1	4.282950	1.427650	21.414750
217	1	2.855300	0.000000	22.842400
218	1	4.282950	1.427650	24.270050
219	1	2.855300	0.000000	25.697700
220	1	4.282950	1.427650	27.125350
221	1	2.855300	2.855300	0.000000
222	1	4.282950	4.282950	1.427650
223	1	2.855300	2.855300	2.855300
224	1	4.282950	4.282950	4.282950
225	1	2.855300	2.855300	5.710600
226	1	4.282950	4.282950	7.138250
227	1	2.855300	2.855300	8.565900
228	1	4.282950	4.282950	9.993550
229	1	2.855300	2.855300	11.421200
230	1	4.282950	4.282950	12.848850
231	1	2.855300	2.855300	14.276500
232	1	4.282950	4.282950	15.704150
233	1	2.855300	2.855300	17.131800
234	1	4.282950	4.282950	18.559450
235	1	2.855300	2.855300	19.987100
236	1	4.282950	4.282950	21.414750
237	1	2.855300	2.855300	22.842400
238	1	4.282950	4.282950	24.270050
239	1	2.855300	2.855300	25.697700
240	1	4.282950	4.282950	27.125350
241	1	2.855300	5.710600	0.000000
242	1	4.282950	7.138250	1.427650
243	1	2.855300	5.710600	2.855300
244	1	4.282950	7.138250	4.282950
245	1	2.855300	5.710600	5.710600
246	1	4.282950	7.138250	7.138250
247	1	2.855300	5.710600	8.565900
248	1	4.282950	7.138250	9.993550
249	1	2.855300	5.710600	11.421200
250	1	4.282950	7.138250	12.848850
251	1	2.855300	5.710600	14.276500
252	1	4.282950	7.138250	15.704150
253	1	2.855300	5.710600	17.131800
254	1	4.282950	7.138250	18.559450
255	1	2.855300	5.710600	19.987100
256	1	4.282950	7.138250	21.414750
257	1	2.855300	5.710600	22.842400
258	1	4.282950	7.138250	24.270050
259	1	2.855300	5.710600	25.697700
260	1	4.282950	7.138250	27.125350
261	1	2.855300	8.565900	0.000000
262	1	4.282950	9.993550	1.427650
263	1	2.855300	8.565900	2.855300
264	1	4.282950	9.993550	4.282950
265	1	2.855300	8.565900	5.710600
266	1	4.282950	9.993550	7.138250
267	1	2.855300	8.565900	8.565900
268	1	4.282950	9.993550	9.993550
269	1	2.855300	8.565900	11.421200
270	1	4.282950	9.993550	12.848850
271	1	2.855300	8.565900	14.276500
272	1	4.282950	9.993550	15.704150
273	1	2.855300	8.565900	17.131800
274	1	4.282950	9.993550	18.559450
275	1	2.855300	8.565900	19.987100
276	1	4.282950	9.993550	21.414750
277	1	2.855300	8.565900	22.842400
278	1	4.282950	9.993550	24.270050
279	1	2.855300	8.565900	25.697700
280	1	4.282950	9.993550	27.125350
281	1	2.855300	11.421200	0.000000
282	1	4.282950	12.848850	1.427650
283	1	2.855300	11.421200	2.855300
284	1	4.282950	12.848850	4.282950
285	1	2.855300	11.421200	5.710600
286	1	4.282950	12.848850	7.138250
287	1	2.855300	11.421200	8.565900
288	1	4.282950	12.848850	9.993550
289	1	2.855300	11.421200	11.421200
290	1	4.282950	12.848850	12.848850
291	1	2.855300	11.421200	14.276500
292	1	4.282950	12.848850	15.704150
293	1	2.855300	11.421200	17.131800
294	1	4.282950	12.848850	18.559450
295	1	2.855300	11.421200	19.987100
296	1	4.282950	12.848850	21.414750
297	1	2.855300	11.421200	22.842400
298	1	4.282950	12.848850	24.270050
299	1	2.855300	11.421200	25.697700
300	1	4.282950	12.848850	27.125350
301	1	2.855300	14.276500	0.000000
302	1	4.282950	15.704150	1.427650
303	1	2.855300	14.276500	2.855300
304	1	4.282950	15.704150	4.282950
305	1	2.855300	14.276500	5.710600
306	1	4.282950	15.704150	7.138250
307	1	2.855300	14.276500	8.565900
308	1	4.282950	15.704150	9.993550
309	1	2.855300	14.276500	11.421200
310	1	4.282950	15.704150	12.848850
311	1	2.855300	14.276500	14.276500
312	1	4.282950	15.704150	15.704150
313	1	2.855300	14.276500	17.131800
314	1	4.282950	15.704150	18.559450
315	1	2.855300	14.276500	19.987100
316	1	4.282950	15.704150	21.414750
317	1	2.855300	14.276500	22.842400
318	1	4.282950	15.704150	24.270050
319	1	2.855300	14.276500	25.697700
320	1	4.282950	15.704150	27.125350
321	1	2.855300	17.131800	0.000000
322	1	4.282950	18.559450	1.427650
323	1	2.855300	17.131800	2.855300
324	1	4.282950	18.559450	4.282950
325	1	2.855300	17.131800	5.710600
326	1	4.282950	18.559450	7.138250
327	1	2.855300	17.131800	8.565900
328	1	4.282950	18.559450	9.993550
329	1	2.855300	17.131800	11.421200
330	1	4.282950	18.559450	12.848850
331	1	2.855300	17.131800	14.276500
332	1	4.282950	18.559450	15.704150
333	1	2.855300	17.131800	17.131800
334	1	4.282950	18.559450	18.559450
335	1	2.855300	17.131800	19.987100
336	1	4.282950	18.559450	21.414750
337	1	2.855300	17.131800	22.842400
338	1	4.282950	18.559450	24.270050
339	1	2.855300	17.131800	25.697700
340	1	4.282950	18.559450	27.125350
341	1	2.855300	19.987100	0.000000
342	1	4.282950	21.414750	1.427650
343	1	2.855300	19.987100	2.855300
344	1	4.282950	21.414750	4.282950
345	1	2.855300	19.987100	5.710600
346	1	4.282950	21.414750	7.138250
347	1	2.855300	19.987100	8.565900
348	1	4.282950	21.414750	9.993550
349	1	2.855300	19.987100	11.421200
350	1	4.282950	21.414750	12.848850
351	1	2.855300	19.987100	14.276500
352	1	4.282950	21.414750	15.704150
353	1	2.855300	19.987100	17.131800
354	1	4.282950	21.414750	18.559450
355	1	2.855300	19.987100	19.987100
356	1	4.282950	21.414750	21.414750
357	1	2.855300	19.987100	22.842400
358	1	4.282950	21.414750	24.270050
359	1	2.855300	19.987100	25.697700
360	1	4.282950	21.414750	27.125350
361	1	2.855300	22.842400	0.000000
362	1	4.282950	24.270050	1.427650
363	1	2.855300	22.842400	2.855300
364	1	4.282950	24.270050	4.282950
365	1	2.855300	22.842400	5.710600
366	1	4.282950	24.270050	7.138250
367	1	2.855300	22.842400	8.565900
368	1	4.282950	24.270050	9.993550
369	1	2.855300	22.842400	11.421200
370	1	4.282950	24.270050	12.848850
371	1	2.855300	22.842400	14.276500
372	1	4.282950	24.270050	15.704150
373	1	2.855300	22.842400	17.131800
374	1	4.282950	24.270050	18.559450
375	1	2.855300	22.842400	19.987100
376	1	4.282950	24.270050	21.414750
377	1	2.855300	22.842400	22.842400
378	1	4.282950	24.270050	24.270050
379	1	2.855300	22.842400	25.697700
380	1	4.282950	24.270050	27.125350
381	1	2.855300	25.697700	0.000000
382	1	4.282950	27.125350	1.427650
383	1	2.855300	25.697700	2.855300
384	1	4.282950	27.125350	4.282950
385	1	2.855300	25.697700	5.710600
386	1	4.282950	27.125350	7.138250
387	1	2.855300	25.697700	8.565900
388	1	4.282950	27.125350	9.993550
389	1	2.855300	25.697700	11.421200
390	1	4.282950	27.125350	12.848850
391	1	2.855300	25.697700	14.276500
392	1	4.282950	27.125350	15.704150
393	1	2.855300	25.697700	17.131800
394	1	4.282950	27.125350	18.559450
395	1	2.855300	25.697700	19.987100
396	1	4.282950	27.125350	21.414750
397	1	2.855300	25.697700	22.842400
398	1	4.282950	27.125350	24.270050
399	1	2.855300	25.697700	25.697700
400	1	4.282950	27.125350	27.125350
401	1	5.710600	0.000000	0.000000
402	1	7.138250	1.427650	1.427650
403	1	5.710600	0.000000	2.855300
404	1	7.138250	1.427650	4.282950
405	1	5.710600	0.000000	5.710600
406	1	7.138250	1.427650	7.138250
407	1	5.710600	0.000000	8.565900
408	1	7.138250	1.427650	9.993550
409	1	5.710600	0.000000	11.421200
410	1	7.138250	1.427650	12.848850
411	1	5.710600	0.000000	14.276500
412	1	7.138250	1.427650	15.704150
413	1	5.710600	0.000000	17.131800
414	1	7.138250	1.427650	18.559450
415	1	5.710600	0.000000	19.987100
416	1	7.138250	1.427650	21.414750
417	1	5.710600	0.000000	22.842400
418	1	7.138250	1.427650	24.270050
419	1	5.710600	0.000000	25.697700
420	1	7.138250	1.427650	27.125350
421	1	5.710600	2.855300	0.000000
422	1	7.138250	4.282950	1.427650
423	1	5.710600	2.855300	2.855300
424	1	7.138250	4.282950	4.282950
425	1	5.710600	2.855300	5.710600
426	1	7.138250	4.282950	7.138250
427	1	5.710600	2.855300	8.565900
428	1	7.138250	4.282950	9.993550
429	1	5.710600	2.855300	11.421200
430	1	7.138250	4.282950	12.848850
431	1	5.710600	2.855300	14.276500
432	1	7.138250	4.282950	15.704150
433	1	5.710600	2.855300	17.131800
434	1	7.138250	4.282950	18.559450
435	1	5.710600	2.855300	19.987100
436	1	7.138250	4.282950	21.414750
437	1	5.710600	2.855300	22.842400
438	1	7.138250	4.282950	24.270050
439	1	5.710600	2.855300	25.697700
440	1	7.138250	4.282950	27.125350
441	1	5.710600	5.710600	0.000000
442	1	7.138250	7.138250	1.427650
443	1	5.710600	5.710600	2.855300
444	1	7.138250	7.138250	4.282950
445	1	5.710600	5.710600	5.710600
446	1	7.138250	7.138250	7.138250
447	1	5.710600	5.710600	8.565900
448	1	7.138250	7.138250	9.993550
449	1	5.710600	5.710600	11.421200
450	1	7.138250	7.138250	12.848850
451	1	5.710600	5.710600	14.276500
452	1	7.138250	7.138250	15.704150
453	1	5.710600	5.710600	17.131800
454	1	7.138250	7.138250	18.559450
455	1	5.710600	5.710600	19.987100
456	1	7.138250	7.138250	21.414750
457	1	5.710600	5.710600	22.842400
458	1	7.138250	7.138250	24.270050
459	1	5.710600	5.710600	25.697700
460	1	7.138250	7.138250	27.125350
461	1	5.710600	8.565900	0.000000
462	1	7.138250	9.993550	1.427650
463	1	5.710600	8.565900	2.855300
464	1	7.138250	9.993550	4.282950
465	1	5.710600	8.565900	5.710600
466	1	7.138250	9.993550	7.138250
467	1	5.710600	8.565900	8.565900
468	1	7.138250	9.993550	9.993550
469	1	5.710600	8.565900	11.421200
470	1	7.138250	9.993550	12.848850
471	1	5.710600	8.565900	14.276500
472	1	7.138250	9.993550	15.704150
473	1	5.710600	8.565900	17.131800
474	1	7.138250	9.993550	18.559450
475	1	5.710600	8.565900	19.987100
476	1	7.138250	9.993550	21.414750
477	1	5.710600	8.565900	22.842400
478	1	7.138250	9.993550	24.270050
479	1	5.710600	8.565900	25.697700
480	1	7.138250	9.993550	27.125350
481	1	5.710600	11.421200	0.000000
482	1	7.138250	12.848850	1.427650
483	1	5.710600	11.421200	2.855300
484	1	7.138250	12.848850	4.282950
485	1	5.710600	11.421200	5.710600
486	1	7.138250	12.848850	7.138250
487	1	5.710600	11.421200	8.565900
488	1	7.138250	12.848850	9.993550
489	1	5.710600	11.421200	11.421200
490	1	7.138250	12.848850	12.848850
491	1	5.710600	11.421200	14.276500
492	1	7.138250	12.848850	15.704150
493	1	5.710600	11.421200	17.131800
494	1	7.138250	12.848850	18.559450
495	1	5.710600	11.421200	19.987100
496	1	7.138250	12.848850	21.414750
497	1	5.710600	11.421200	22.842400
498	1	7.138250	12.848850	24.270050
499	1	5.710600	11.421200	25.697700
500	1	7.138250	12.848850	27.125350
501	1	5.710600	14.276500	0.000000
502	1	7.138250	15.704150	1.427650
503	1	5.710600	14.276500	2.855300
504	1	7.138250	15.704150	4.282950
505	1	5.710600	14.276500	5.710600
506	1	7.138250	15.704150	7.138250
507	1	5.710600	14.276500	8.565900
508	1	7.138250	15.704150	9.993550
509	1	5.710600	14.276500	11.421200
510	1	7.138250	15.704150	12.848850
511	1	5.710600	14.276500	14.276500
512	1	7.138250	15.704150	15.704150
513	1	5.710600	14.276500	17.131800
514	1	7.138250	15.704150	18.559450
515	1	5.710600	14.276500	19.987100
516	1	7.138250	15.704150	21.414750
517	1	5.710600	14.276500	22.842400
518	1	7.138250	15.704150	24.270050
519	1	5.710600	14.276500	25.697700
520	1	7.138250	15.704150	27.125350
521	1	5.710600	17.131800	0.000000
522	1	7.138250	18.559450	1.427650
523	1	5.710600	17.131800	2.855300
524	1	7.138250	18.559450	4.282950
525	1	5.710600	17.131800	5.710600
526	1	7.138250	18.559450	7.138250
527	1	5.710600	17.131800	8.565900
528	1	7.138250	18.559450	9.993550
529	1	5.710600	17.131800	11.421200
530	1	7.138250	18.559450	12.848850
531	1	5.710600	17.131800	14.276500
532	1	7.138250	18.559450	15.704150
533	1	5.710600	17.131800	17.131800
534	1	7.138250	18.559450	18.559450
535	1	5.710600	17.131800	19.987100
536	1	7.138250	18.559450	21.414750
537	1	5.710600	17.131800	22.842400
538	1	7.138250	18.559450	24.270050
539	1	5.710600	17.131800	25.697700
540	1	7.138250	18.559450	27.125350
541	1	5.710600	19.987100	0.000000
542	1	7.138250	21.414750	1.427650
543	1	5.710600	19.987100	2.855300
544	1	7.138250	21.414750	4.282950
545	1	5.710600	19.987100	5.710600
546	1	7.138250	21.414750	7.138250
547	1	5.710600	19.987100	8.565900
548	1	7.138250	21.414750	9.993550
549	1	5.710600	19.987100	11.421200
550	1	7.138250	21.414750	12.848850
551	1	5.710600	19.987100	14.276500
552	1	7.138250	21.414750	15.704150
553	1	5.710600	19.987100	17.131800
554	1	7.138250	21.414750	18.559450
555	1	5.710600	19.987100	19.987100
556	1	7.138250	21.414750	21.414750
557	1	5.710600	19.987100	22.842400
558	1	7.138250	21.414750	24.270050
559	1	5.710600	19.987100	25.697700
560	1	7.138250	21.414750	27.125350
561	1	5.710600	22.842400	0.000000
562	1	7.138250	24.270050	1.427650
563	1	5.710600	22.842400	2.855300
564	1	7.138250	24.270050	4.282950
565	1	5.710600	22.842400	5.710600
566	1	7.138250	24.270050	7.138250
567	1	5.710600	22.842400	8.565900
568	1	7.138250	24.270050	9.993550
569	1	5.710600	22.842400	11.421200
570	1	7.138250	24.270050	12.848850
571	1	5.710600	22.842400	14.276500
572	1	7.138250	24.270050	15.704150
573	1	5.710600	22.842400	17.131800
574	1	7.138250	24.270050	18.559450
575	1	5.710600	22.842400	19.987100
576	1	7.138250	24.270050	21.414750
577	1	5.710600	22.842400	22.842400
578	1	7.138250	24.270050	24.270050
579	1	5.710600	22.842400	25.697700
580	1	7.138250	24.270050	27.125350
581	1	5.710600	25.697700	0.000000
582	1	7.138250	27.125350	1.427650
583	1	5.710600	25.697700	2.855300
584	1	7.138250	27.125350	4.282950
585	1	5.710600	25.697700	5.710600
586	1	7.138250	27.125350	7.138250
587	1	5.710600	25.697700	8.565900
588	1	7.138250	27.125350	9.993550
589	1	5.710600	25.697700	11.421200
590	1	7.138250	27.125350	12.848850
591	1	5.710600	25.697700	14.276500
592	1	7.138250	27.125350	15.704150
593	1	5.710600	25.697700	17.131800
594	1	7.138250	27.125350	18.559450
595	1	5.710600	25.697700	19.987100
596	1	7.138250	27.125350	21.414750
597	1	5.710600	25.697700	22.842400
598	1	7.138250	27.125350	24.270050
599	1	5.710600	25.697700	25.697700
600	1	7.138250	27.125350	27.125350
601	1	8.565900	0.000000	0.000000
602	1	9.993550	1.427650	1.427650
603	1	8.565900	0.000000	2.855300
604	1	9.993550	1.427650	4.282950
605	1	8.565900	0.000000	5.710600
606	1	9.993550	1.427650	7.138250
607	1	8.565900	0.000000	8.565900
608	1	9.993550	1.427650	9.993550
609	1	8.565900	0.000000	11.421200
610	1	9.993550	1.427650	12.848850
611	1	8.565900	0.000000	14.276500
612	1	9.993550	1.427650	15.704150
613	1	8.565900	0.000000	17.131800
614	1	9.993550	1.427650	18.559450
615	1	8.565900	0.000000	19.987100
616	1	9.993550	1.427650	21.414750
617	1	8.565900	0.000000	22.842400
618	1	9.993550	1.427650	24.270050
619	1	8.565900	0.000000	25.697700
620	1	9.993550	1.427650	27.125350
621	1	8.565900	2.855300	0.000000
622	1	9.993550	4.282950	1.427650
623	1	8.565900	2.855300	2.855300
624	1	9.993550	4.282950	4.282950
625	1	8.565900	2.855300	5.710600
626	1	9.993550	4.282950	7.138250
627	1	8.565900	2.855300	8.565900
628	1	9.993550	4.282950	9.993550
629	1	8.565900	2.855300	11.421200
630	1	9.993550	4.282950	12.848850
631	1	8.565900	2.855300	14.276500
632	1	9.993550	4.282950	15.704150
633	1	8.565900	2.855300	17.131800
634	1	9.993550	4.282950	18.559450
635	1	8.565900	2.855300	19.987100
636	1	9.993550	4.282950	21.414750
637	1	8.565900	2.855300	22.842400
638	1	9.993550	4.282950	24.270050
639	1	8.565900	2.855300	25.697700
640	1	9.993550	4.282950	27.125350
641	1	8.565900	5.710600	0.000000
642	1	9.993550	7.138250	1.427650
643	1	8.565900	5.710600	2.855300
644	1	9.993550	7.138250	4.282950
645	1	8.565900	5.710600	5.710600
646	1	9.993550	7.138250	7.138250
647	1	8.565900	5.710600	8.565900
648	1	9.993550	7.138250	9.993550
649	1	8.565900	5.710600	11.421200
650	1	9.993550	7.138250	12.848850
651	1	8.565900	5.710600	14.276500
652	1	9.993550	7.138250	15.704150
653	1	8.565900	5.710600	17.131800
654	1	9.993550	7.138250	18.559450
655	1	8.565900	5.710600	19.987100
656	1	9.993550	7.138250	21.414750
657	1	8.565900	5.710600	22.842400
658	1	9.993550	7.138250	24.270050
659	1	8.565900	5.710600	25.697700
660	1	9.993550	7.138250	27.125350
661	1	8.565900	8.565900	0.000000
662	1	9.993550	9.993550	1.427650
663	1	8.565900	8.565900	2.855300
664	1	9.993550	9.993550	4.282950
665	1	8.565900	8.565900	5.710600
666	1	9.993550	9.993550	7.138250
667	1	8.565900	8.565900	8.565900
668	1	9.993550	9.993550	9.993550
669	1	8.565900	8.565900	11.421200
670	1	9.993550	9.993550	12.848850
671	1	8.565900	8.565900	14.276500
672	1	9.993550	9.993550	15.704150
673	1	8.565900	8.565900	17.131800
674	1	9.993550	9.993550	18.559450
675	1	8.565900	8.565900	19.987100
676	1	9.993550	9.993550	21.414750
677	1	8.565900	8.565900	22.842400
678	1	9.993550	9.993550	24.270050
679	1	8.565900	8.565900	25.697700
680	1	9.993550	9.993550	27.125350
681	1	8.565900	11.421200	0.000000
682	1	9.993550	12.848850	1.427650
683	1	8.565900	11.421200	2.855300
684	1	9.993550	12.848850	4.282950
685	1	8.565900	11.421200	5.710600
686	1	9.993550	12.848850	7.138250
687	1	8.565900	11.421200	8.565900
688	1	9.993550	12.848850	9.993550
689	1	8.565900	11.421200	11.421200
690	1	9.993550	12.848850	12.848850
691	1	8.565900	11.421200	14.276500
692	1	9.993550	12.848850	15.704150
693	1	8.565900	11.421200	17.131800
694	1	9.993550	12.848850	18.559450
695	1	8.565900	11.421200	19.987100
696	1	9.993550	12.848850	21.414750
697	1	8.565900	11.421200	22.842400
698	1	9.993550	12.848850	24.270050
699	1	8.565900	11.421200	25.697700
700	1	9.993550	12.848850	27.125350
701	1	8.565900	14.276500	0.000000
702	1	9.993550	15.704150	1.427650
703	1	8.565900	14.276500	2.855300
704	1	9.993550	15.704150	4.282950
705	1	8.565900	14.276500	5.710600
706	1	9.993550	15.704150	7.138250
707	1	8.565900	14.276500	8.565900
708	1	9.993550	15.704150	9.993550
709	1	8.565900	14.276500	11.421200
710	1	9.993550	15.704150	12.848850
711	1	8.565900	14.276500	14.276500
712	1	9.993550	15.704150	15.704150
713	1	8.565900	14.276500	17.131800
714	1	9.993550	15.704150	18.559450
715	1	8.565900	14.276500	19.987100
716	1	9.993550	15.704150	21.414750
717	1	8.565900	14.276500	22.842400
718	1	9.993550	15.704150	24.270050
719	1	8.565900	14.276500	25.697700
720	1	9.993550	15.704150	27.125350
721	1	8.565900	17.131800	0.000000
722	1	9.993550	18.559450	1.427650
723	1	8.565900	17.131800	2.855300
724	1	9.993550	18.559450	4.282950
725	1	8.565900	17.131800	5.710600
726	1	9.993550	18.559450	7.138250
727	1	8.565900	17.131800	8.565900
728	1	9.993550	18.559450	9.993550
729	1	8.565900	17.131800	11.421200
730	1	9.993550	18.559450	12.848850
731	1	8.565900	17.131800	14.276500
732	1	9.993550	18.559450	15.704150
733	1	8.565900	17.131800	17.131800
734	1	9.993550	18.559450	18.559450
735	1	8.565900	17.131800	19.987100
736	1	9.993550	18.559450	21.414750
737	1	8.565900	17.131800	22.842400
738	1	9.993550	18.559450	24.270050
739	1	8.565900	17.131800	25.697700
740	1	9.993550	18.559450	27.125350
741	1	8.565900	19.987100	0.000000
742	1	9.993550	21.414750	1.427650
743	1	8.565900	19.987100	2.855300
744	1	9.993550	21.414750	4.282950
745	1	8.565900	19.987100	5.710600
746	1	9.993550	21.414750	7.138250
747	1	8.565900	19.987100	8.565900
748	1	9.993550	21.414750	9.993550
749	1	8.565900	19.987100	11.421200
750	1	9.993550	21.414750	12.848850
751	1	8.565900	19.987100	14.276500
752	1	9.993550	21.414750	15.704150
753	1	8.565900	19.987100	17.131800
754	1	9.993550	21.414750	18.559450
755	1	8.565900	19.987100	19.987100
756	1	9.993550	21.414750	21.414750
757	1	8.565900	19.987100	22.842400
758	1	9.993550	21.414750	24.270050
759	1	8.565900	19.987100	25.697700
760	1	9.993550	21.414750	27.125350
761	1	8.565900	22.842400	0.000000
762	1	9.993550	24.270050	1.427650
763	1	8.565900	22.842400	2.855300
764	1	9.993550	24.270050	4.282950
765	1	8.565900	22.842400	5.710600
766	1	9.993550	24.270050	7.138250
767	1	8.565900	22.842400	8.565900
768	1	9.993550	24.270050	9.993550
769	1	8.565900	22.842400	11.421200
770	1	9.993550	24.270050	12.848850
771	1	8.565900	22.842400	14.276500
772	1	9.993550	24.270050	15.704150
773	1	8.565900	22.842400	17.131800
774	1	9.993550	24.270050	18.559450
775	1	8.565900	22.842400	19.987100
776	1	9.993550	24.270050	21.414750
777	1	8.565900	22.842400	22.842400
778	1	9.993550	24.270050	24.270050
779	1	8.565900	22.842400	25.697700
780	1	9.993550	24.270050	27.125350
781	1	8.565900	25.697700	0.000000
782	1	9.993550	27.125350	1.427650
783	1	8.565900	25.697700	2.855300
784	1	9.993550	27.125350	4.282950
785	1	8.565900	25.697700	5.710600
786	1	9.993550	27.125350	7.138250
787	1	8.565900	25.697700	8.565900
788	1	9.993550	27.125350	9.993550
789	1	8.565900	25.697700	11.421200
790	1	9.993550	27.125350	12.848850
791	1	8.565900	25.697700	14.276500
792	1	9.993550	27.125350	15.704150
793	1	8.565900	25.697700	17.131800
794	1	9.993550	27.125350	18.559450
795	1	8.565900	25.697700	19.987100
796	1	9.993550	27.125350	21.414750
797	1	8.565900	25.697700	22.842400
798	1	9.993550	27.125350	24.270050
799	1	8.565900	25.697700	25.697700
800	1	9.993550	27.125350	27.125350
801	1	11.421200	0.000000	0.000000
802	1	12.848850	1.427650	1.427650
803	1	11.421200	0.000000	2.855300
804	1	12.848850	1.427650	4.282950
805	1	11.421200	0.000000	5.710600
806	1	12.848850	1.427650	7.138250
807	1	11.421200	0.000000	8.565900
808	1	12.848850	1.427650	9.993550
809	1	11.421200	0.000000	11.421200
810	1	12.848850	1.427650	12.848850
811	1	11.421200	0.000000	14.276500
812	1	12.848850	1.427650	15.704150
813	1	11.421200	0.000000	17.131800
814	1	12.848850	1.427650	18.559450
815	1	11.421200	0.000000	19.987100
816	1	12.848850	1.427650	21.414750
817	1	11.421200	0.000000	22.842400
818	1	12.848850	1.427650	24.270050
819	1	11.421200	0.000000	25.697700
820	1	12.848850	1.427650	27.125350
821	1	11.421200	2.855300	0.000000
822	1	12.848850	4.282950	1.427650
823	1	11.421200	2.855300	2.855300
824	1	12.848850	4.282950	4.282950
825	1	11.421200	2.855300	5.710600
826	1	12.848850	4.282950	7.138250
827	1	11.421200	2.855300	8.565900
828	1	12.848850	4.282950	9.993550
829	1	11.421200	2.855300	11.421200
830	1	12.848850	4.282950	12.848850
831	1	11.421200	2.855300	14.276500
832	1	12.848850	4.282950	15.704150
833	1	11.421200	2.855300	17.131800
834	1	12.848850	4.282950	18.559450
835	1	11.421200	2.855300	19.987100
836	1	12.848850	4.282950	21.414750
837	1	11.421200	2.855300	22.842400
838	1	12.848850	4.282950	24.270050
839	1	11.421200	2.855300	25.697700
840	1	12.848850	4.282950	27.125350
841	1	11.421200	5.710600	0.000000
842	1	12.848850	7.138250	1.427650
843	1	11.421200	5.710600	2.855300
844	1	12.848850	7.138250	4.282950
845	1	11.421200	5.710600	5.710600
846	1	12.848850	7.138250	7.138250
847	1	11.421200	5.710600	8.565900
848	1	12.848850	7.138250	9.993550
849	1	11.421200	5.710600	11.421200
850	1	12.848850	7.138250	12.848850
851	1	11.421200	5.710600	14.276500
852	1	12.848850	7.138250	15.704150
853	1	11.421200	5.710600	17.131800
854	1	12.848850	7.138250	18.559450
855	1	11.421200	5.710600	19.987100
856	1	12.848850	7.138250	21.414750
857	1	11.421200	5.710600	22.842400
858	1	12.848850	7.138250	24.270050
859	1	11.421200	5.710600	25.697700
860	1	12.848850	7.138250	27.125350
861	1	11.421200	8.565900	0.000000
862	1	12.848850	9.993550	1.427650
863	1	11.421200	8.565900	2.855300
864	1	12.848850	9.993550	4.282950
865	1	11.421200	8.565900	5.710600
866	1	12.848850	9.993550	7.138250
867	1	11.421200	8.565900	8.565900
868	1	12.848850	9.993550	9.993550
869	1	11.421200	8.565900	11.421200
870	1	12.848850	9.993550	12.848850
871	1	11.421200	8.565900	14.276500
872	1	12.848850	9.993550	15.704150
873	1	11.421200	8.565900	17.131800
874	1	12.848850	9.993550	18.559450
875	1	11.421200	8.565900	19.987100