Kikuchi_sphere_radius
39.84063745
Kikuchi_line_intensity
60005
-1.68108430	-0.21013554	-0.14009036	0.00000000
-1.68108430	-0.21013554	-0.07004518	0.00000000
-1.68108430	-0.21013554	0.00000000	0.00000000
-1.68108430	-0.21013554	0.07004518	0.00000000
-1.68108430	-0.21013554	0.14009036	0.00000000
-1.68108430	-0.14009036	-0.21013554	0.00000000
-1.68108430	-0.14009036	-0.14009036	0.00000000
-1.68108430	-0.14009036	-0.07004518	0.00000000
-1.68108430	-0.14009036	0.00000000	0.00000000
-1.68108430	-0.14009036	0.07004518	0.00000000
-1.68108430	-0.14009036	0.14009036	0.00000000
-1.68108430	-0.14009036	0.21013554	0.00000000
-1.68108430	-0.07004518	-0.21013554	0.00000000
-1.68108430	-0.07004518	-0.14009036	0.00000000
-1.68108430	-0.07004518	-0.07004518	0.00000000
-1.68108430	-0.07004518	0.00000000	0.00000000
-1.68108430	-0.07004518	0.07004518	0.00000000
-1.68108430	-0.07004518	0.14009036	0.00000000
-1.68108430	-0.07004518	0.21013554	0.00000000
-1.68108430	0.00000000	-0.21013554	0.00000000
-1.68108430	0.00000000	-0.14009036	0.00000000
-1.68108430	0.00000000	-0.07004518	0.00000000
-1.68108430	0.00000000	0.00000000	0.00000000
-1.68108430	0.00000000	0.07004518	0.00000000
-1.68108430	0.00000000	0.14009036	0.00000000
-1.68108430	0.00000000	0.21013554	0.00000000
-1.68108430	0.07004518	-0.21013554	0.00000000
-1.68108430	0.07004518	-0.14009036	0.00000000
-1.68108430	0.07004518	-0.07004518	0.00000000
-1.68108430	0.07004518	0.00000000	0.00000000
-1.68108430	0.07004518	0.07004518	0.00000000
-1.68108430	0.07004518	0.14009036	0.00000000
-1.68108430	0.07004518	0.21013554	0.00000000
-1.68108430	0.14009036	-0.21013554	0.00000000
-1.68108430	0.14009036	-0.14009036	0.00000000
-1.68108430	0.14009036	-0.07004518	0.00000000
-1.68108430	0.14009036	0.00000000	0.00000000
-1.68108430	0.14009036	0.07004518	0.00000000
-1.68108430	0.14009036	0.14009036	0.00000000
-1.68108430	0.14009036	0.21013554	0.00000000
-1.68108430	0.21013554	-0.14009036	0.00000000
-1.68108430	0.21013554	-0.07004518	0.00000000
-1.68108430	0.21013554	0.00000000	0.00000000
-1.68108430	0.21013554	0.07004518	0.00000000
-1.68108430	0.21013554	0.14009036	0.00000000
-1.61103912	-0.49031625	-0.21013554	0.00000000
-1.61103912	-0.49031625	-0.14009036	0.00000000
-1.61103912	-0.49031625	-0.07004518	0.00000000
-1.61103912	-0.49031625	0.00000000	0.00000000
-1.61103912	-0.49031625	0.07004518	0.00000000
-1.61103912	-0.49031625	0.14009036	0.00000000
-1.61103912	-0.49031625	0.21013554	0.00000000
-1.61103912	-0.42027107	-0.28018072	0.00000000
-1.61103912	-0.42027107	-0.21013554	0.00000000
-1.61103912	-0.42027107	-0.14009036	0.00000000
-1.61103912	-0.42027107	-0.07004518	0.00000000
-1.61103912	-0.42027107	0.00000000	0.00000000
-1.61103912	-0.42027107	0.07004518	0.00000000
-1.61103912	-0.42027107	0.14009036	0.00000000
-1.61103912	-0.42027107	0.21013554	0.00000000
-1.61103912	-0.42027107	0.28018072	0.00000000
-1.61103912	-0.35022590	-0.35022590	0.00000000
-1.61103912	-0.35022590	-0.28018072	0.00000000
-1.61103912	-0.35022590	-0.21013554	0.00000000
-1.61103912	-0.35022590	-0.14009036	0.00000000
-1.61103912	-0.35022590	-0.07004518	0.00000000
-1.61103912	-0.35022590	0.00000000	0.00000000
-1.61103912	-0.35022590	0.07004518	0.00000000
-1.61103912	-0.35022590	0.14009036	0.00000000
-1.61103912	-0.35022590	0.21013554	0.00000000
-1.61103912	-0.35022590	0.28018072	0.00000000
-1.61103912	-0.35022590	0.35022590	0.00000000
-1.61103912	-0.28018072	-0.42027107	0.00000000
-1.61103912	-0.28018072	-0.35022590	0.00000000
-1.61103912	-0.28018072	-0.28018072	0.00000000
-1.61103912	-0.28018072	-0.21013554	0.00000000
-1.61103912	-0.28018072	-0.14009036	0.00000000
-1.61103912	-0.28018072	-0.07004518	0.00000000
-1.61103912	-0.28018072	0.00000000	0.00000000
-1.61103912	-0.28018072	0.07004518	0.00000000
-1.61103912	-0.28018072	0.14009036	0.00000000
-1.61103912	-0.28018072	0.21013554	0.00000000
-1.61103912	-0.28018072	0.28018072	0.00000000
-1.61103912	-0.28018072	0.35022590	0.00000000
-1.61103912	-0.28018072	0.42027107	0.00000000
-1.61103912	-0.21013554	-0.49031625	0.00000000
-1.61103912	-0.21013554	-0.42027107	0.00000000
-1.61103912	-0.21013554	-0.35022590	0.00000000
-1.61103912	-0.21013554	-0.28018072	0.00000000
-1.61103912	-0.21013554	-0.21013554	0.00000000
-1.61103912	-0.21013554	-0.14009036	0.00000000
-1.61103912	-0.21013554	-0.07004518	0.00000000
-1.61103912	-0.21013554	0.00000000	0.00000000
-1.61103912	-0.21013554	0.07004518	0.00000000
-1.61103912	-0.21013554	0.14009036	0.00000000
-1.61103912	-0.21013554	0.21013554	0.00000000
-1.61103912	-0.21013554	0.28018072	0.00000000
-1.61103912	-0.21013554	0.35022590	0.00000000
-1.61103912	-0.21013554	0.42027107	0.00000000
-1.61103912	-0.21013554	0.49031625	0.00000000
-1.61103912	-0.14009036	-0.49031625	0.00000000
-1.61103912	-0.14009036	-0.42027107	0.00000000
-1.61103912	-0.14009036	-0.35022590	0.00000000
-1.61103912	-0.14009036	-0.28018072	0.00000000
-1.61103912	-0.14009036	-0.21013554	0.00000000
-1.61103912	-0.14009036	-0.14009036	0.00000000
-1.61103912	-0.14009036	-0.07004518	0.00000000
-1.61103912	-0.14009036	0.00000000	0.00000000
-1.61103912	-0.14009036	0.07004518	0.00000000
-1.61103912	-0.14009036	0.14009036	0.00000000
-1.61103912	-0.14009036	0.21013554	0.00000000
-1.61103912	-0.14009036	0.28018072	0.00000000
-1.61103912	-0.14009036	0.35022590	0.00000000
-1.61103912	-0.14009036	0.42027107	0.00000000
-1.61103912	-0.14009036	0.49031625	0.00000000
-1.61103912	-0.07004518	-0.49031625	0.00000000
-1.61103912	-0.07004518	-0.42027107	0.00000000
-1.61103912	-0.07004518	-0.35022590	0.00000000
-1.61103912	-0.07004518	-0.28018072	0.00000000
-1.61103912	-0.07004518	-0.21013554	0.00000000
-1.61103912	-0.07004518	-0.14009036	0.00000000
-1.61103912	-0.07004518	-0.07004518	0.00000000
-1.61103912	-0.07004518	0.00000000	0.00000000
-1.61103912	-0.07004518	0.07004518	0.00000000
-1.61103912	-0.07004518	0.14009036	0.00000000
-1.61103912	-0.07004518	0.21013554	0.00000000
-1.61103912	-0.07004518	0.28018072	0.00000000
-1.61103912	-0.07004518	0.35022590	0.00000000
-1.61103912	-0.07004518	0.42027107	0.00000000
-1.61103912	-0.07004518	0.49031625	0.00000000
-1.61103912	0.00000000	-0.49031625	0.00000000
-1.61103912	0.00000000	-0.42027107	0.00000000
-1.61103912	0.00000000	-0.35022590	0.00000000
-1.61103912	0.00000000	-0.28018072	0.00000000
-1.61103912	0.00000000	-0.21013554	0.00000000
-1.61103912	0.00000000	-0.14009036	0.00000000
-1.61103912	0.00000000	-0.07004518	0.00000000
-1.61103912	0.00000000	0.00000000	0.00000000
-1.61103912	0.00000000	0.07004518	0.00000000
-1.61103912	0.00000000	0.14009036	0.00000000
-1.61103912	0.00000000	0.21013554	0.00000000
-1.61103912	0.00000000	0.28018072	0.00000000
-1.61103912	0.00000000	0.35022590	0.00000000
-1.61103912	0.00000000	0.42027107	0.00000000
-1.61103912	0.00000000	0.49031625	0.00000000
-1.61103912	0.07004518	-0.49031625	0.00000000
-1.61103912	0.07004518	-0.42027107	0.00000000
-1.61103912	0.07004518	-0.35022590	0.00000000
-1.61103912	0.07004518	-0.28018072	0.00000000
-1.61103912	0.07004518	-0.21013554	0.00000000
-1.61103912	0.07004518	-0.14009036	0.00000000
-1.61103912	0.07004518	-0.07004518	0.00000000
-1.61103912	0.07004518	0.00000000	0.00000000
-1.61103912	0.07004518	0.07004518	0.00000000
-1.61103912	0.07004518	0.14009036	0.00000000
-1.61103912	0.07004518	0.21013554	0.00000000
-1.61103912	0.07004518	0.28018072	0.00000000
-1.61103912	0.07004518	0.35022590	0.00000000
-1.61103912	0.07004518	0.42027107	0.00000000
-1.61103912	0.07004518	0.49031625	0.00000000
-1.61103912	0.14009036	-0.49031625	0.00000000
-1.61103912	0.14009036	-0.42027107	0.00000000
-1.61103912	0.14009036	-0.35022590	0.00000000
-1.61103912	0.14009036	-0.28018072	0.00000000
-1.61103912	0.14009036	-0.21013554	0.00000000
-1.61103912	0.14009036	-0.14009036	0.00000000
-1.61103912	0.14009036	-0.07004518	0.00000000
-1.61103912	0.14009036	0.00000000	0.00000000
-1.61103912	0.14009036	0.07004518	0.00000000
-1.61103912	0.14009036	0.14009036	0.00000000
-1.61103912	0.14009036	0.21013554	0.00000000
-1.61103912	0.14009036	0.28018072	0.00000000
-1.61103912	0.14009036	0.35022590	0.00000000
-1.61103912	0.14009036	0.42027107	0.00000000
-1.61103912	0.14009036	0.49031625	0.00000000
-1.61103912	0.21013554	-0.49031625	0.00000000
-1.61103912	0.21013554	-0.42027107	0.00000000
-1.61103912	0.21013554	-0.35022590	0.00000000
-1.61103912	0.21013554	-0.28018072	0.00000000
-1.61103912	0.21013554	-0.21013554	0.00000000
-1.61103912	0.21013554	-0.14009036	0.00000000
-1.61103912	0.21013554	-0.07004518	0.00000000
-1.61103912	0.21013554	0.00000000	0.00000000
-1.61103912	0.21013554	0.07004518	0.00000000
-1.61103912	0.21013554	0.14009036	0.00000000
-1.61103912	0.21013554	0.21013554	0.00000000
-1.61103912	0.21013554	0.28018072	0.00000000
-1.61103912	0.21013554	0.35022590	0.00000000
-1.61103912	0.21013554	0.42027107	0.00000000
-1.61103912	0.21013554	0.49031625	0.00000000
-1.61103912	0.28018072	-0.42027107	0.00000000
-1.61103912	0.28018072	-0.35022590	0.00000000
-1.61103912	0.28018072	-0.28018072	0.00000000
-1.61103912	0.28018072	-0.21013554	0.00000000
-1.61103912	0.28018072	-0.14009036	0.00000000
-1.61103912	0.28018072	-0.07004518	0.00000000
-1.61103912	0.28018072	0.00000000	0.00000000
-1.61103912	0.28018072	0.07004518	0.00000000
-1.61103912	0.28018072	0.14009036	0.00000000
-1.61103912	0.28018072	0.21013554	0.00000000
-1.61103912	0.28018072	0.28018072	0.00000000
-1.61103912	0.28018072	0.35022590	0.00000000
-1.61103912	0.28018072	0.42027107	0.00000000
-1.61103912	0.35022590	-0.35022590	0.00000000
-1.61103912	0.35022590	-0.28018072	0.00000000
-1.61103912	0.35022590	-0.21013554	0.00000000
-1.61103912	0.35022590	-0.14009036	0.00000000
-1.61103912	0.35022590	-0.07004518	0.00000000
-1.61103912	0.35022590	0.00000000	0.00000000
-1.61103912	0.35022590	0.07004518	0.00000000
-1.61103912	0.35022590	0.14009036	0.00000000
-1.61103912	0.35022590	0.21013554	0.00000000
-1.61103912	0.35022590	0.28018072	0.00000000
-1.61103912	0.35022590	0.35022590	0.00000000
-1.61103912	0.42027107	-0.28018072	0.00000000
-1.61103912	0.42027107	-0.21013554	0.00000000
-1.61103912	0.42027107	-0.14009036	0.00000000
-1.61103912	0.42027107	-0.07004518	0.00000000
-1.61103912	0.42027107	0.00000000	0.00000000
-1.61103912	0.42027107	0.07004518	0.00000000
-1.61103912	0.42027107	0.14009036	0.00000000
-1.61103912	0.42027107	0.21013554	0.00000000
-1.61103912	0.42027107	0.28018072	0.00000000
-1.61103912	0.49031625	-0.21013554	0.00000000
-1.61103912	0.49031625	-0.14009036	0.00000000
-1.61103912	0.49031625	-0.07004518	0.00000000
-1.61103912	0.49031625	0.00000000	0.00000000
-1.61103912	0.49031625	0.07004518	0.00000000
-1.61103912	0.49031625	0.14009036	0.00000000
-1.61103912	0.49031625	0.21013554	0.00000000
-1.54099394	-0.70045179	-0.14009036	0.00000000
-1.54099394	-0.70045179	-0.07004518	0.00000000
-1.54099394	-0.70045179	0.00000000	0.00000000
-1.54099394	-0.70045179	0.07004518	0.00000000
-1.54099394	-0.70045179	0.14009036	0.00000000
-1.54099394	-0.63040661	-0.28018072	0.00000000
-1.54099394	-0.63040661	-0.21013554	0.00000000
-1.54099394	-0.63040661	-0.14009036	0.00000000
-1.54099394	-0.63040661	-0.07004518	0.00000000
-1.54099394	-0.63040661	0.00000000	0.00000000
-1.54099394	-0.63040661	0.07004518	0.00000000
-1.54099394	-0.63040661	0.14009036	0.00000000
-1.54099394	-0.63040661	0.21013554	0.00000000
-1.54099394	-0.63040661	0.28018072	0.00000000
-1.54099394	-0.56036143	-0.42027107	0.00000000
-1.54099394	-0.56036143	-0.35022590	0.00000000
-1.54099394	-0.56036143	-0.28018072	0.00000000
-1.54099394	-0.56036143	-0.21013554	0.00000000
-1.54099394	-0.56036143	-0.14009036	0.00000000
-1.54099394	-0.56036143	-0.07004518	0.00000000
-1.54099394	-0.56036143	0.00000000	0.00000000
-1.54099394	-0.56036143	0.07004518	0.00000000
-1.54099394	-0.56036143	0.14009036	0.00000000
-1.54099394	-0.56036143	0.21013554	0.00000000
-1.54099394	-0.56036143	0.28018072	0.00000000
-1.54099394	-0.56036143	0.35022590	0.00000000
-1.54099394	-0.56036143	0.42027107	0.00000000
-1.54099394	-0.49031625	-0.49031625	0.00000000
-1.54099394	-0.49031625	-0.42027107	0.00000000
-1.54099394	-0.49031625	-0.35022590	0.00000000
-1.54099394	-0.49031625	-0.28018072	0.00000000
-1.54099394	-0.49031625	-0.21013554	0.00000000
-1.54099394	-0.49031625	-0.14009036	0.00000000
-1.54099394	-0.49031625	-0.07004518	0.00000000
-1.54099394	-0.49031625	0.00000000	0.00000000
-1.54099394	-0.49031625	0.07004518	0.00000000
-1.54099394	-0.49031625	0.14009036	0.00000000
-1.54099394	-0.49031625	0.21013554	0.00000000
-1.54099394	-0.49031625	0.28018072	0.00000000
-1.54099394	-0.49031625	0.35022590	0.00000000
-1.54099394	-0.49031625	0.42027107	0.00000000
-1.54099394	-0.49031625	0.49031625	0.00000000
-1.54099394	-0.42027107	-0.56036143	0.00000000
-1.54099394	-0.42027107	-0.49031625	0.00000000
-1.54099394	-0.42027107	-0.42027107	0.00000000
-1.54099394	-0.42027107	-0.35022590	0.00000000
-1.54099394	-0.42027107	-0.28018072	0.00000000
-1.54099394	-0.42027107	-0.21013554	0.00000000
-1.54099394	-0.42027107	-0.14009036	0.00000000
-1.54099394	-0.42027107	-0.07004518	0.00000000
-1.54099394	-0.42027107	0.00000000	0.00000000
-1.54099394	-0.42027107	0.07004518	0.00000000
-1.54099394	-0.42027107	0.14009036	0.00000000
-1.54099394	-0.42027107	0.21013554	0.00000000
-1.54099394	-0.42027107	0.28018072	0.00000000
-1.54099394	-0.42027107	0.35022590	0.00000000
-1.54099394	-0.42027107	0.42027107	0.00000000
-1.54099394	-0.42027107	0.49031625	0.00000000
-1.54099394	-0.42027107	0.56036143	0.00000000
-1.54099394	-0.35022590	-0.56036143	0.00000000
-1.54099394	-0.35022590	-0.49031625	0.00000000
-1.54099394	-0.35022590	-0.42027107	0.00000000
-1.54099394	-0.35022590	-0.35022590	0.00000000
-1.54099394	-0.35022590	-0.28018072	0.00000000
-1.54099394	-0.35022590	-0.21013554	0.00000000
-1.54099394	-0.35022590	-0.14009036	0.00000000
-1.54099394	-0.35022590	-0.07004518	0.00000000
-1.54099394	-0.35022590	0.00000000	0.00000000
-1.54099394	-0.35022590	0.07004518	0.00000000
-1.54099394	-0.35022590	0.14009036	0.00000000
-1.54099394	-0.35022590	0.21013554	0.00000000
-1.54099394	-0.35022590	0.28018072	0.00000000
-1.54099394	-0.35022590	0.35022590	0.00000000
-1.54099394	-0.35022590	0.42027107	0.00000000
-1.54099394	-0.35022590	0.49031625	0.00000000
-1.54099394	-0.35022590	0.56036143	0.00000000
-1.54099394	-0.28018072	-0.63040661	0.00000000
-1.54099394	-0.28018072	-0.56036143	0.00000000
-1.54099394	-0.28018072	-0.49031625	0.00000000
-1.54099394	-0.28018072	-0.42027107	0.00000000
-1.54099394	-0.28018072	-0.35022590	0.00000000
-1.54099394	-0.28018072	-0.28018072	0.00000000
-1.54099394	-0.28018072	-0.21013554	0.00000000
-1.54099394	-0.28018072	-0.14009036	0.00000000
-1.54099394	-0.28018072	-0.07004518	0.00000000
-1.54099394	-0.28018072	0.00000000	0.00000000
-1.54099394	-0.28018072	0.07004518	0.00000000
-1.54099394	-0.28018072	0.14009036	0.00000000
-1.54099394	-0.28018072	0.21013554	0.00000000
-1.54099394	-0.28018072	0.28018072	0.00000000
-1.54099394	-0.28018072	0.35022590	0.00000000
-1.54099394	-0.28018072	0.42027107	0.00000000
-1.54099394	-0.28018072	0.49031625	0.00000000
-1.54099394	-0.28018072	0.56036143	0.00000000
-1.54099394	-0.28018072	0.63040661	0.00000000
-1.54099394	-0.21013554	-0.63040661	0.00000000
-1.54099394	-0.21013554	-0.56036143	0.00000000
-1.54099394	-0.21013554	-0.49031625	0.00000000
-1.54099394	-0.21013554	-0.42027107	0.00000000
-1.54099394	-0.21013554	-0.35022590	0.00000000
-1.54099394	-0.21013554	-0.28018072	0.00000000
-1.54099394	-0.21013554	-0.21013554	0.00000000
-1.54099394	-0.21013554	-0.14009036	0.00000000
-1.54099394	-0.21013554	-0.07004518	0.00000000
-1.54099394	-0.21013554	0.00000000	0.00000000
-1.54099394	-0.21013554	0.07004518	0.00000000
-1.54099394	-0.21013554	0.14009036	0.00000000
-1.54099394	-0.21013554	0.21013554	0.00000000
-1.54099394	-0.21013554	0.28018072	0.00000000
-1.54099394	-0.21013554	0.35022590	0.00000000
-1.54099394	-0.21013554	0.42027107	0.00000000
-1.54099394	-0.21013554	0.49031625	0.00000000
-1.54099394	-0.21013554	0.56036143	0.00000000
-1.54099394	-0.21013554	0.63040661	0.00000000
-1.54099394	-0.14009036	-0.70045179	0.00000000
-1.54099394	-0.14009036	-0.63040661	0.00000000
-1.54099394	-0.14009036	-0.56036143	0.00000000
-1.54099394	-0.14009036	-0.49031625	0.00000000
-1.54099394	-0.14009036	-0.42027107	0.00000000
-1.54099394	-0.14009036	-0.35022590	0.00000000
-1.54099394	-0.14009036	-0.28018072	0.00000000
-1.54099394	-0.14009036	-0.21013554	0.00000000
-1.54099394	-0.14009036	-0.14009036	0.00000000
-1.54099394	-0.14009036	-0.07004518	0.00000000
-1.54099394	-0.14009036	0.00000000	0.00000000
-1.54099394	-0.14009036	0.07004518	0.00000000
-1.54099394	-0.14009036	0.14009036	0.00000000
-1.54099394	-0.14009036	0.21013554	0.00000000
-1.54099394	-0.14009036	0.28018072	0.00000000
-1.54099394	-0.14009036	0.35022590	0.00000000
-1.54099394	-0.14009036	0.42027107	0.00000000
-1.54099394	-0.14009036	0.49031625	0.00000000
-1.54099394	-0.14009036	0.56036143	0.00000000
-1.54099394	-0.14009036	0.63040661	0.00000000
-1.54099394	-0.14009036	0.70045179	0.00000000
-1.54099394	-0.07004518	-0.70045179	0.00000000
-1.54099394	-0.07004518	-0.63040661	0.00000000
-1.54099394	-0.07004518	-0.56036143	0.00000000
-1.54099394	-0.07004518	-0.49031625	0.00000000
-1.54099394	-0.07004518	-0.42027107	0.00000000
-1.54099394	-0.07004518	-0.35022590	0.00000000
-1.54099394	-0.07004518	-0.28018072	0.00000000
-1.54099394	-0.07004518	-0.21013554	0.00000000
-1.54099394	-0.07004518	-0.14009036	0.00000000
-1.54099394	-0.07004518	-0.07004518	0.00000000
-1.54099394	-0.07004518	0.00000000	0.00000000
-1.54099394	-0.07004518	0.07004518	0.00000000
-1.54099394	-0.07004518	0.14009036	0.00000000
-1.54099394	-0.07004518	0.21013554	0.00000000
-1.54099394	-0.07004518	0.28018072	0.00000000
-1.54099394	-0.07004518	0.35022590	0.00000000
-1.54099394	-0.07004518	0.42027107	0.00000000
-1.54099394	-0.07004518	0.49031625	0.00000000
-1.54099394	-0.07004518	0.56036143	0.00000000
-1.54099394	-0.07004518	0.63040661	0.00000000
-1.54099394	-0.07004518	0.70045179	0.00000000
-1.54099394	0.00000000	-0.70045179	0.00000000
-1.54099394	0.00000000	-0.63040661	0.00000000
-1.54099394	0.00000000	-0.56036143	0.00000000
-1.54099394	0.00000000	-0.49031625	0.00000000
-1.54099394	0.00000000	-0.42027107	0.00000000
-1.54099394	0.00000000	-0.35022590	0.00000000
-1.54099394	0.00000000	-0.28018072	0.00000000
-1.54099394	0.00000000	-0.21013554	0.00000000
-1.54099394	0.00000000	-0.14009036	0.00000000
-1.54099394	0.00000000	-0.07004518	0.00000000
-1.54099394	0.00000000	0.00000000	0.00000000
-1.54099394	0.00000000	0.07004518	0.00000000
-1.54099394	0.00000000	0.14009036	0.00000000
-1.54099394	0.00000000	0.21013554	0.00000000
-1.54099394	0.00000000	0.28018072	0.00000000
-1.54099394	0.00000000	0.35022590	0.00000000
-1.54099394	0.00000000	0.42027107	0.00000000
-1.54099394	0.00000000	0.49031625	0.00000000
-1.54099394	0.00000000	0.56036143	0.00000000
-1.54099394	0.00000000	0.63040661	0.00000000
-1.54099394	0.00000000	0.70045179	0.00000000
-1.54099394	0.07004518	-0.70045179	0.00000000
-1.54099394	0.07004518	-0.63040661	0.00000000
-1.54099394	0.07004518	-0.56036143	0.00000000
-1.54099394	0.07004518	-0.49031625	0.00000000
-1.54099394	0.07004518	-0.42027107	0.00000000
-1.54099394	0.07004518	-0.35022590	0.00000000
-1.54099394	0.07004518	-0.28018072	0.00000000
-1.54099394	0.07004518	-0.21013554	0.00000000
-1.54099394	0.07004518	-0.14009036	0.00000000
-1.54099394	0.07004518	-0.07004518	0.00000000
-1.54099394	0.07004518	0.00000000	0.00000000
-1.54099394	0.07004518	0.07004518	0.00000000
-1.54099394	0.07004518	0.14009036	0.00000000
-1.54099394	0.07004518	0.21013554	0.00000000
-1.54099394	0.07004518	0.28018072	0.00000000
-1.54099394	0.07004518	0.35022590	0.00000000
-1.54099394	0.07004518	0.42027107	0.00000000
-1.54099394	0.07004518	0.49031625	0.00000000
-1.54099394	0.07004518	0.56036143	0.00000000
-1.54099394	0.07004518	0.63040661	0.00000000
-1.54099394	0.07004518	0.70045179	0.00000000
-1.54099394	0.14009036	-0.70045179	0.00000000
-1.54099394	0.14009036	-0.63040661	0.00000000
-1.54099394	0.14009036	-0.56036143	0.00000000
-1.54099394	0.14009036	-0.49031625	0.00000000
-1.54099394	0.14009036	-0.42027107	0.00000000
-1.54099394	0.14009036	-0.35022590	0.00000000
-1.54099394	0.14009036	-0.28018072	0.00000000
-1.54099394	0.14009036	-0.21013554	0.00000000
-1.54099394	0.14009036	-0.14009036	0.00000000
-1.54099394	0.14009036	-0.07004518	0.00000000
-1.54099394	0.14009036	0.00000000	0.00000000
-1.54099394	0.14009036	0.07004518	0.00000000
-1.54099394	0.14009036	0.14009036	0.00000000
-1.54099394	0.14009036	0.21013554	0.00000000
-1.54099394	0.14009036	0.28018072	0.00000000
-1.54099394	0.14009036	0.35022590	0.00000000
-1.54099394	0.14009036	0.42027107	0.00000000
-1.54099394	0.14009036	0.49031625	0.00000000
-1.54099394	0.14009036	0.56036143	0.00000000
-1.54099394	0.14009036	0.63040661	0.00000000
-1.54099394	0.14009036	0.70045179	0.00000000
-1.54099394	0.21013554	-0.63040661	0.00000000
-1.54099394	0.21013554	-0.56036143	0.00000000
-1.54099394	0.21013554	-0.49031625	0.00000000
-1.54099394	0.21013554	-0.42027107	0.00000000
-1.54099394	0.21013554	-0.35022590	0.00000000
-1.54099394	0.21013554	-0.28018072	0.00000000
-1.54099394	0.21013554	-0.21013554	0.00000000
-1.54099394	0.21013554	-0.14009036	0.00000000
-1.54099394	0.21013554	-0.07004518	0.00000000
-1.54099394	0.21013554	0.00000000	0.00000000
-1.54099394	0.21013554	0.07004518	0.00000000
-1.54099394	0.21013554	0.14009036	0.00000000
-1.54099394	0.21013554	0.21013554	0.00000000
-1.54099394	0.21013554	0.28018072	0.00000000
-1.54099394	0.21013554	0.35022590	0.00000000
-1.54099394	0.21013554	0.42027107	0.00000000
-1.54099394	0.21013554	0.49031625	0.00000000
-1.54099394	0.21013554	0.56036143	0.00000000
-1.54099394	0.21013554	0.63040661	0.00000000
-1.54099394	0.28018072	-0.63040661	0.00000000
-1.54099394	0.28018072	-0.56036143	0.00000000
-1.54099394	0.28018072	-0.49031625	0.00000000
-1.54099394	0.28018072	-0.42027107	0.00000000
-1.54099394	0.28018072	-0.35022590	0.00000000
-1.54099394	0.28018072	-0.28018072	0.00000000
-1.54099394	0.28018072	-0.21013554	0.00000000
-1.54099394	0.28018072	-0.14009036	0.00000000
-1.54099394	0.28018072	-0.07004518	0.00000000
-1.54099394	0.28018072	0.00000000	0.00000000
-1.54099394	0.28018072	0.07004518	0.00000000
-1.54099394	0.28018072	0.14009036	0.00000000
-1.54099394	0.28018072	0.21013554	0.00000000
-1.54099394	0.28018072	0.28018072	0.00000000
-1.54099394	0.28018072	0.35022590	0.00000000
-1.54099394	0.28018072	0.42027107	0.00000000
-1.54099394	0.28018072	0.49031625	0.00000000
-1.54099394	0.28018072	0.56036143	0.00000000
-1.54099394	0.28018072	0.63040661	0.00000000
-1.54099394	0.35022590	-0.56036143	0.00000000
-1.54099394	0.35022590	-0.49031625	0.00000000
-1.54099394	0.35022590	-0.42027107	0.00000000
-1.54099394	0.35022590	-0.35022590	0.00000000
-1.54099394	0.35022590	-0.28018072	0.00000000
-1.54099394	0.35022590	-0.21013554	0.00000000
-1.54099394	0.35022590	-0.14009036	0.00000000
-1.54099394	0.35022590	-0.07004518	0.00000000
-1.54099394	0.35022590	0.00000000	0.00000000
-1.54099394	0.35022590	0.07004518	0.00000000
-1.54099394	0.35022590	0.14009036	0.00000000
-1.54099394	0.35022590	0.21013554	0.00000000
-1.54099394	0.35022590	0.28018072	0.00000000
-1.54099394	0.35022590	0.35022590	0.00000000
-1.54099394	0.35022590	0.42027107	0.00000000
-1.54099394	0.35022590	0.49031625	0.00000000
-1.54099394	0.35022590	0.56036143	0.00000000
-1.54099394	0.42027107	-0.56036143	0.00000000
-1.54099394	0.42027107	-0.49031625	0.00000000
-1.54099394	0.42027107	-0.42027107	0.00000000
-1.54099394	0.42027107	-0.35022590	0.00000000
-1.54099394	0.42027107	-0.28018072	0.00000000
-1.54099394	0.42027107	-0.21013554	0.00000000
-1.54099394	0.42027107	-0.14009036	0.00000000
-1.54099394	0.42027107	-0.07004518	0.00000000
-1.54099394	0.42027107	0.00000000	0.00000000
-1.54099394	0.42027107	0.07004518	0.00000000
-1.54099394	0.42027107	0.14009036	0.00000000
-1.54099394	0.42027107	0.21013554	0.00000000
-1.54099394	0.42027107	0.28018072	0.00000000
-1.54099394	0.42027107	0.35022590	0.00000000
-1.54099394	0.42027107	0.42027107	0.00000000
-1.54099394	0.42027107	0.49031625	0.00000000
-1.54099394	0.42027107	0.56036143	0.00000000
-1.54099394	0.49031625	-0.49031625	0.00000000
-1.54099394	0.49031625	-0.42027107	0.00000000
-1.54099394	0.49031625	-0.35022590	0.00000000
-1.54099394	0.49031625	-0.28018072	0.00000000
-1.54099394	0.49031625	-0.21013554	0.00000000
-1.54099394	0.49031625	-0.14009036	0.00000000
-1.54099394	0.49031625	-0.07004518	0.00000000
-1.54099394	0.49031625	0.00000000	0.00000000
-1.54099394	0.49031625	0.07004518	0.00000000
-1.54099394	0.49031625	0.14009036	0.00000000
-1.54099394	0.49031625	0.21013554	0.00000000
-1.54099394	0.49031625	0.28018072	0.00000000
-1.54099394	0.49031625	0.35022590	0.00000000
-1.54099394	0.49031625	0.42027107	0.00000000
-1.54099394	0.49031625	0.49031625	0.00000000
-1.54099394	0.56036143	-0.42027107	0.00000000
-1.54099394	0.56036143	-0.35022590	0.00000000
-1.54099394	0.56036143	-0.28018072	0.00000000
-1.54099394	0.56036143	-0.21013554	0.00000000
-1.54099394	0.56036143	-0.14009036	0.00000000
-1.54099394	0.56036143	-0.07004518	0.00000000
-1.54099394	0.56036143	0.00000000	0.00000000
-1.54099394	0.56036143	0.07004518	0.00000000
-1.54099394	0.56036143	0.14009036	0.00000000
-1.54099394	0.56036143	0.21013554	0.00000000
-1.54099394	0.56036143	0.28018072	0.00000000
-1.54099394	0.56036143	0.35022590	0.00000000
-1.54099394	0.56036143	0.42027107	0.00000000
-1.54099394	0.63040661	-0.28018072	0.00000000
-1.54099394	0.63040661	-0.21013554	0.00000000
-1.54099394	0.63040661	-0.14009036	0.00000000
-1.54099394	0.63040661	-0.07004518	0.00000000
-1.54099394	0.63040661	0.00000000	0.00000000
-1.54099394	0.63040661	0.07004518	0.00000000
-1.54099394	0.63040661	0.14009036	0.00000000
-1.54099394	0.63040661	0.21013554	0.00000000
-1.54099394	0.63040661	0.28018072	0.00000000
-1.54099394	0.70045179	-0.14009036	0.00000000
-1.54099394	0.70045179	-0.07004518	0.00000000
-1.54099394	0.70045179	0.00000000	0.00000000
-1.54099394	0.70045179	0.07004518	0.00000000
-1.54099394	0.70045179	0.14009036	0.00000000
-1.47094876	-0.84054215	-0.14009036	0.00000000
-1.47094876	-0.84054215	-0.07004518	0.00000000
-1.47094876	-0.84054215	0.00000000	0.00000000
-1.47094876	-0.84054215	0.07004518	0.00000000
-1.47094876	-0.84054215	0.14009036	0.00000000
-1.47094876	-0.77049697	-0.35022590	0.00000000
-1.47094876	-0.77049697	-0.28018072	0.00000000
-1.47094876	-0.77049697	-0.21013554	0.00000000
-1.47094876	-0.77049697	-0.14009036	0.00000000
-1.47094876	-0.77049697	-0.07004518	0.00000000
-1.47094876	-0.77049697	0.00000000	0.00000000
-1.47094876	-0.77049697	0.07004518	0.00000000
-1.47094876	-0.77049697	0.14009036	0.00000000
-1.47094876	-0.77049697	0.21013554	0.00000000
-1.47094876	-0.77049697	0.28018072	0.00000000
-1.47094876	-0.77049697	0.35022590	0.00000000
-1.47094876	-0.70045179	-0.42027107	0.00000000
-1.47094876	-0.70045179	-0.35022590	0.00000000
-1.47094876	-0.70045179	-0.28018072	0.00000000
-1.47094876	-0.70045179	-0.21013554	0.00000000
-1.47094876	-0.70045179	-0.14009036	0.00000000
-1.47094876	-0.70045179	-0.07004518	0.00000000
-1.47094876	-0.70045179	0.00000000	0.00000000
-1.47094876	-0.70045179	0.07004518	0.00000000
-1.47094876	-0.70045179	0.14009036	0.00000000
-1.47094876	-0.70045179	0.21013554	0.00000000
-1.47094876	-0.70045179	0.28018072	0.00000000
-1.47094876	-0.70045179	0.35022590	0.00000000
-1.47094876	-0.70045179	0.42027107	0.00000000
-1.47094876	-0.63040661	-0.56036143	0.00000000
-1.47094876	-0.63040661	-0.49031625	0.00000000
-1.47094876	-0.63040661	-0.42027107	0.00000000
-1.47094876	-0.63040661	-0.35022590	0.00000000
-1.47094876	-0.63040661	-0.28018072	0.00000000
-1.47094876	-0.63040661	-0.21013554	0.00000000
-1.47094876	-0.63040661	-0.14009036	0.00000000
-1.47094876	-0.63040661	-0.07004518	0.00000000
-1.47094876	-0.63040661	0.00000000	0.00000000
-1.47094876	-0.63040661	0.07004518	0.00000000
-1.47094876	-0.63040661	0.14009036	0.00000000
-1.47094876	-0.63040661	0.21013554	0.00000000
-1.47094876	-0.63040661	0.28018072	0.00000000
-1.47094876	-0.63040661	0.35022590	0.00000000
-1.47094876	-0.63040661	0.42027107	0.00000000
-1.47094876	-0.63040661	0.49031625	0.00000000
-1.47094876	-0.63040661	0.56036143	0.00000000
-1.47094876	-0.56036143	-0.63040661	0.00000000
-1.47094876	-0.56036143	-0.56036143	0.00000000
-1.47094876	-0.56036143	-0.49031625	0.00000000
-1.47094876	-0.56036143	-0.42027107	0.00000000
-1.47094876	-0.56036143	-0.35022590	0.00000000
-1.47094876	-0.56036143	-0.28018072	0.00000000
-1.47094876	-0.56036143	-0.21013554	0.00000000
-1.47094876	-0.56036143	-0.14009036	0.00000000
-1.47094876	-0.56036143	-0.07004518	0.00000000
-1.47094876	-0.56036143	0.00000000	0.00000000
-1.47094876	-0.56036143	0.07004518	0.00000000
-1.47094876	-0.56036143	0.14009036	0.00000000
-1.47094876	-0.56036143	0.21013554	0.00000000
-1.47094876	-0.56036143	0.28018072	0.00000000
-1.47094876	-0.56036143	0.35022590	0.00000000
-1.47094876	-0.56036143	0.42027107	0.00000000
-1.47094876	-0.56036143	0.49031625	0.00000000
-1.47094876	-0.56036143	0.56036143	0.00000000
-1.47094876	-0.56036143	0.63040661	0.00000000
-1.47094876	-0.49031625	-0.63040661	0.00000000
-1.47094876	-0.49031625	-0.56036143	0.00000000
-1.47094876	-0.49031625	-0.49031625	0.00000000
-1.47094876	-0.49031625	-0.42027107	0.00000000
-1.47094876	-0.49031625	-0.35022590	0.00000000
-1.47094876	-0.49031625	-0.28018072	0.00000000
-1.47094876	-0.49031625	-0.21013554	0.00000000
-1.47094876	-0.49031625	-0.14009036	0.00000000
-1.47094876	-0.49031625	-0.07004518	0.00000000
-1.47094876	-0.49031625	0.00000000	0.00000000
-1.47094876	-0.49031625	0.07004518	0.00000000
-1.47094876	-0.49031625	0.14009036	0.00000000
-1.47094876	-0.49031625	0.21013554	0.00000000
-1.47094876	-0.49031625	0.28018072	0.00000000
-1.47094876	-0.49031625	0.35022590	0.00000000
-1.47094876	-0.49031625	0.42027107	0.00000000
-1.47094876	-0.49031625	0.49031625	0.00000000
-1.47094876	-0.49031625	0.56036143	0.00000000
-1.47094876	-0.49031625	0.63040661	0.00000000
-1.47094876	-0.42027107	-0.70045179	0.00000000
-1.47094876	-0.42027107	-0.63040661	0.00000000
-1.47094876	-0.42027107	-0.56036143	0.00000000