Position data Generated by SPaMD
250	atoms
1	atom types
0.000000		14.276500	xlo xhi
0.000000		14.276500	ylo yhi
0.000000		14.276500	zlo zhi

Atoms

1	1	0.000000	0.000000	0.000000
2	1	1.427650	1.427650	1.427650
3	1	0.000000	0.000000	2.855300
4	1	1.427650	1.427650	4.282950
5	1	0.000000	0.000000	5.710600
6	1	1.427650	1.427650	7.138250
7	1	0.000000	0.000000	8.565900
8	1	1.427650	1.427650	9.993550
9	1	0.000000	0.000000	11.421200
10	1	1.427650	1.427650	12.848850
11	1	0.000000	2.855300	0.000000
12	1	1.427650	4.282950	1.427650
13	1	0.000000	2.855300	2.855300
14	1	1.427650	4.282950	4.282950
15	1	0.000000	2.855300	5.710600
16	1	1.427650	4.282950	7.138250
17	1	0.000000	2.855300	8.565900
18	1	1.427650	4.282950	9.993550
19	1	0.000000	2.855300	11.421200
20	1	1.427650	4.282950	12.848850
21	1	0.000000	5.710600	0.000000
22	1	1.427650	7.138250	1.427650
23	1	0.000000	5.710600	2.855300
24	1	1.427650	7.138250	4.282950
25	1	0.000000	5.710600	5.710600
26	1	1.427650	7.138250	7.138250
27	1	0.000000	5.710600	8.565900
28	1	1.427650	7.138250	9.993550
29	1	0.000000	5.710600	11.421200
30	1	1.427650	7.138250	12.848850
31	1	0.000000	8.565900	0.000000
32	1	1.427650	9.993550	1.427650
33	1	0.000000	8.565900	2.855300
34	1	1.427650	9.993550	4.282950
35	1	0.000000	8.565900	5.710600
36	1	1.427650	9.993550	7.138250
37	1	0.000000	8.565900	8.565900
38	1	1.427650	9.993550	9.993550
39	1	0.000000	8.565900	11.421200
40	1	1.427650	9.993550	12.848850
41	1	0.000000	11.421200	0.000000
42	1	1.427650	12.848850	1.427650
43	1	0.000000	11.421200	2.855300
44	1	1.427650	12.848850	4.282950
45	1	0.000000	11.421200	5.710600
46	1	1.427650	12.848850	7.138250
47	1	0.000000	11.421200	8.565900
48	1	1.427650	12.848850	9.993550
49	1	0.000000	11.421200	11.421200
50	1	1.427650	12.848850	12.848850
51	1	2.855300	0.000000	0.000000
52	1	4.282950	1.427650	1.427650
53	1	2.855300	0.000000	2.855300
54	1	4.282950	1.427650	4.282950
55	1	2.855300	0.000000	5.710600
56	1	4.282950	1.427650	7.138250
57	1	2.855300	0.000000	8.565900
58	1	4.282950	1.427650	9.993550
59	1	2.855300	0.000000	11.421200
60	1	4.282950	1.427650	12.848850
61	1	2.855300	2.855300	0.000000
62	1	4.282950	4.282950	1.427650
63	1	2.855300	2.855300	2.855300
64	1	4.282950	4.282950	4.282950
65	1	2.855300	2.855300	5.710600
66	1	4.282950	4.282950	7.138250
67	1	2.855300	2.855300	8.565900
68	1	4.282950	4.282950	9.993550
69	1	2.855300	2.855300	11.421200
70	1	4.282950	4.282950	12.848850
71	1	2.855300	5.710600	0.000000
72	1	4.282950	7.138250	1.427650
73	1	2.855300	5.710600	2.855300
74	1	4.282950	7.138250	4.282950
75	1	2.855300	5.710600	5.710600
76	1	4.282950	7.138250	7.138250
77	1	2.855300	5.710600	8.565900
78	1	4.282950	7.138250	9.993550
79	1	2.855300	5.710600	11.421200
80	1	4.282950	7.138250	12.848850
81	1	2.855300	8.565900	0.000000
82	1	4.282950	9.993550	1.427650
83	1	2.855300	8.565900	2.855300
84	1	4.282950	9.993550	4.282950
85	1	2.855300	8.565900	5.710600
86	1	4.282950	9.993550	7.138250
87	1	2.855300	8.565900	8.565900
88	1	4.282950	9.993550	9.993550
89	1	2.855300	8.565900	11.421200
90	1	4.282950	9.993550	12.848850
91	1	2.855300	11.421200	0.000000
92	1	4.282950	12.848850	1.427650
93	1	2.855300	11.421200	2.855300
94	1	4.282950	12.848850	4.282950
95	1	2.855300	11.421200	5.710600
96	1	4.282950	12.848850	7.138250
97	1	2.855300	11.421200	8.565900
98	1	4.282950	12.848850	9.993550
99	1	2.855300	11.421200	11.421200
100	1	4.282950	12.848850	12.848850
101	1	5.710600	0.000000	0.000000
102	1	7.138250	1.427650	1.427650
103	1	5.710600	0.000000	2.855300
104	1	7.138250	1.427650	4.282950
105	1	5.710600	0.000000	5.710600
106	1	7.138250	1.427650	7.138250
107	1	5.710600	0.000000	8.565900
108	1	7.138250	1.427650	9.993550
109	1	5.710600	0.000000	11.421200
110	1	7.138250	1.427650	12.848850
111	1	5.710600	2.855300	0.000000
112	1	7.138250	4.282950	1.427650
113	1	5.710600	2.855300	2.855300
114	1	7.138250	4.282950	4.282950
115	1	5.710600	2.855300	5.710600
116	1	7.138250	4.282950	7.138250
117	1	5.710600	2.855300	8.565900
118	1	7.138250	4.282950	9.993550
119	1	5.710600	2.855300	11.421200
120	1	7.138250	4.282950	12.848850
121	1	5.710600	5.710600	0.000000
122	1	7.138250	7.138250	1.427650
123	1	5.710600	5.710600	2.855300
124	1	7.138250	7.138250	4.282950
125	1	5.710600	5.710600	5.710600
126	1	7.138250	7.138250	7.138250
127	1	5.710600	5.710600	8.565900
128	1	7.138250	7.138250	9.993550
129	1	5.710600	5.710600	11.421200
130	1	7.138250	7.138250	12.848850
131	1	5.710600	8.565900	0.000000
132	1	7.138250	9.993550	1.427650
133	1	5.710600	8.565900	2.855300
134	1	7.138250	9.993550	4.282950
135	1	5.710600	8.565900	5.710600
136	1	7.138250	9.993550	7.138250
137	1	5.710600	8.565900	8.565900
138	1	7.138250	9.993550	9.993550
139	1	5.710600	8.565900	11.421200
140	1	7.138250	9.993550	12.848850
141	1	5.710600	11.421200	0.000000
142	1	7.138250	12.848850	1.427650
143	1	5.710600	11.421200	2.855300
144	1	7.138250	12.848850	4.282950
145	1	5.710600	11.421200	5.710600
146	1	7.138250	12.848850	7.138250
147	1	5.710600	11.421200	8.565900
148	1	7.138250	12.848850	9.993550
149	1	5.710600	11.421200	11.421200
150	1	7.138250	12.848850	12.848850
151	1	8.565900	0.000000	0.000000
152	1	9.993550	1.427650	1.427650
153	1	8.565900	0.000000	2.855300
154	1	9.993550	1.427650	4.282950
155	1	8.565900	0.000000	5.710600
156	1	9.993550	1.427650	7.138250
157	1	8.565900	0.000000	8.565900
158	1	9.993550	1.427650	9.993550
159	1	8.565900	0.000000	11.421200
160	1	9.993550	1.427650	12.848850
161	1	8.565900	2.855300	0.000000
162	1	9.993550	4.282950	1.427650
163	1	8.565900	2.855300	2.855300
164	1	9.993550	4.282950	4.282950
165	1	8.565900	2.855300	5.710600
166	1	9.993550	4.282950	7.138250
167	1	8.565900	2.855300	8.565900
168	1	9.993550	4.282950	9.993550
169	1	8.565900	2.855300	11.421200
170	1	9.993550	4.282950	12.848850
171	1	8.565900	5.710600	0.000000
172	1	9.993550	7.138250	1.427650
173	1	8.565900	5.710600	2.855300
174	1	9.993550	7.138250	4.282950
175	1	8.565900	5.710600	5.710600
176	1	9.993550	7.138250	7.138250
177	1	8.565900	5.710600	8.565900
178	1	9.993550	7.138250	9.993550
179	1	8.565900	5.710600	11.421200
180	1	9.993550	7.138250	12.848850
181	1	8.565900	8.565900	0.000000
182	1	9.993550	9.993550	1.427650
183	1	8.565900	8.565900	2.855300
184	1	9.993550	9.993550	4.282950
185	1	8.565900	8.565900	5.710600
186	1	9.993550	9.993550	7.138250
187	1	8.565900	8.565900	8.565900
188	1	9.993550	9.993550	9.993550
189	1	8.565900	8.565900	11.421200
190	1	9.993550	9.993550	12.848850
191	1	8.565900	11.421200	0.000000
192	1	9.993550	12.848850	1.427650
193	1	8.565900	11.421200	2.855300
194	1	9.993550	12.848850	4.282950
195	1	8.565900	11.421200	5.710600
196	1	9.993550	12.848850	7.138250
197	1	8.565900	11.421200	8.565900
198	1	9.993550	12.848850	9.993550
199	1	8.565900	11.421200	11.421200
200	1	9.993550	12.848850	12.848850
201	1	11.421200	0.000000	0.000000
202	1	12.848850	1.427650	1.427650
203	1	11.421200	0.000000	2.855300
204	1	12.848850	1.427650	4.282950
205	1	11.421200	0.000000	5.710600
206	1	12.848850	1.427650	7.138250
207	1	11.421200	0.000000	8.565900
208	1	12.848850	1.427650	9.993550
209	1	11.421200	0.000000	11.421200
210	1	12.848850	1.427650	12.848850
211	1	11.421200	2.855300	0.000000
212	1	12.848850	4.282950	1.427650
213	1	11.421200	2.855300	2.855300
214	1	12.848850	4.282950	4.282950
215	1	11.421200	2.855300	5.710600
216	1	12.848850	4.282950	7.138250
217	1	11.421200	2.855300	8.565900
218	1	12.848850	4.282950	9.993550
219	1	11.421200	2.855300	11.421200
220	1	12.848850	4.282950	12.848850
221	1	11.421200	5.710600	0.000000
222	1	12.848850	7.138250	1.427650
223	1	11.421200	5.710600	2.855300
224	1	12.848850	7.138250	4.282950
225	1	11.421200	5.710600	5.710600
226	1	12.848850	7.138250	7.138250
227	1	11.421200	5.710600	8.565900
228	1	12.848850	7.138250	9.993550
229	1	11.421200	5.710600	11.421200
230	1	12.848850	7.138250	12.848850
231	1	11.421200	8.565900	0.000000
232	1	12.848850	9.993550	1.427650
233	1	11.421200	8.565900	2.855300
234	1	12.848850	9.993550	4.282950
235	1	11.421200	8.565900	5.710600
236	1	12.848850	9.993550	7.138250
237	1	11.421200	8.565900	8.565900
238	1	12.848850	9.993550	9.993550
239	1	11.421200	8.565900	11.421200
240	1	12.848850	9.993550	12.848850
241	1	11.421200	11.421200	0.000000
242	1	12.848850	12.848850	1.427650
243	1	11.421200	11.421200	2.855300
244	1	12.848850	12.848850	4.282950
245	1	11.421200	11.421200	5.710600
246	1	12.848850	12.848850	7.138250
247	1	11.421200	11.421200	8.565900
248	1	12.848850	12.848850	9.993550
249	1	11.421200	11.421200	11.421200
250	1	12.848850	12.848850	12.848850
