Position data Generated by SPaMD
8	atoms
2	atom types
0.000000		5.640700	xlo xhi
0.000000		5.640700	ylo yhi
0.000000		5.640700	zlo zhi

Atoms

1	1	0.000000	0.000000	0.000000
2	1	0.000000	2.820350	2.820350
3	1	2.820350	0.000000	2.820350
4	1	2.820350	2.820350	0.000000
5	2	0.000000	0.000000	2.820350
6	2	0.000000	2.820350	0.000000
7	2	2.820350	0.000000	0.000000
8	2	2.820350	2.820350	2.820350
