Position data Generated by SPaMD
2	atoms
1	atom types
0.000000		3.581695	xlo xhi
0.000000		3.581695	ylo yhi
0.000000		3.581695	zlo zhi
0.000000		0.000000	0.000000	xy xz yz

Atoms

1	1	0.000000	0.000000	0.000000
2	1	1.790847	1.790847	1.790847
