Position data Generated by SPaMD
12	atoms
1	atom types
0.000000		5.431042	xlo xhi
0.000000		6.213967	ylo yhi
0.000000		8.336112	zlo zhi
0.000000		0.000000	0.000000	xy xz yz

Atoms

1	1	2.715521	4.660475	4.168056
2	1	0.000000	4.660475	0.000000
3	1	0.425424	0.000000	2.690219
4	1	5.005618	3.106984	2.690219
5	1	2.290097	3.106984	1.477837
6	1	3.140945	0.000000	1.477837
7	1	0.000000	1.553492	0.000000
8	1	2.715521	1.553492	4.168056
9	1	3.140945	3.106984	6.858275
10	1	2.290097	0.000000	6.858275
11	1	5.005618	0.000000	5.645894
12	1	0.425424	3.106984	5.645894
