 # File generated with Atomsk by 15743 on 2024-10-09 15:47:56
  
        1008  atoms
           1  atom types
 
      0.000000000000      33.955268000000  xlo xhi
      0.000000000000      35.645606000000  ylo yhi
      0.000000000000       8.401750000000  zlo zhi
 
Masses
 
            1   1.00800000              # H
 
Atoms # atomic
 
         1    1        0.000000000000       3.960622849283       1.386790670545
         2    1        0.000000000000       0.000000000000       0.001766047850
         3    1        0.000000000000       1.980310889957       2.796012417258
         4    1        1.212687948827       3.960622849283       3.490583157355
         5    1        1.212687948827       1.980310889957       0.699550541340
         6    1        1.212687948827       0.000000000000       2.106160436030
         7    1        0.000000000000       3.960622849283       5.587665670545
         8    1        0.000000000000       0.000000000000       4.202641047850
         9    1        0.000000000000       1.980310889957       6.996887417257
        10    1        1.212687948827       3.960622849283       7.691458157355
        11    1        1.212687948827       1.980310889957       4.900425541340
        12    1        1.212687948827       0.000000000000       6.307035436030
        13    1        0.000000000000       9.901556944979       1.345982278567
        14    1        0.000000000000       5.940934095696      -0.025292544182
        15    1        0.000000000000       7.921246055021       2.761148851528
        16    1        1.212687948827       9.901556944979       3.441540462255
        17    1        1.212687948827       7.921246055021       0.659423783340
        18    1        1.212687948827       5.940934095696       2.076805897775
        19    1        0.000000000000       9.901556944979       5.546857278567
        20    1        0.000000000000       5.940934095696       4.175582455818
        21    1        0.000000000000       7.921246055021       6.962023851528
        22    1        1.212687948827       9.901556944979       7.642415462255
        23    1        1.212687948827       7.921246055021       4.860298783340
        24    1        1.212687948827       5.940934095696       6.277680897775
        25    1        0.000000000000      15.842491040675       1.316259323575
        26    1        0.000000000000      11.881868904304      -0.067698444905
        27    1        0.000000000000      13.862180150717       2.722722103623
        28    1        1.212687948827      15.842491040675       3.405876209750
        29    1        1.212687948827      13.862180150717       0.612393055312
        30    1        1.212687948827      11.881868904304       2.024781421600
        31    1        0.000000000000      15.842491040675       5.517134323575
        32    1        0.000000000000      11.881868904304       4.133176555095
        33    1        0.000000000000      13.862180150717       6.923597103622
        34    1        1.212687948827      15.842491040675       7.606751209750
        35    1        1.212687948827      13.862180150717       4.813268055312
        36    1        1.212687948827      11.881868904304       6.225656421600
        37    1        0.000000000000      21.783425849283       1.322431165108
        38    1        0.000000000000      17.822803000000      -0.086083658360
        39    1        0.000000000000      19.803113889957       2.716550262090
        40    1        1.212687948827      21.783425849283       3.412976108587
        41    1        1.212687948827      19.803113889957       0.605293156475
        42    1        1.212687948827      17.822803000000       2.003272269460
        43    1        0.000000000000      21.783425849283       5.523306165107
        44    1        0.000000000000      17.822803000000       4.114791341640
        45    1        0.000000000000      19.803113889957       6.917425262090
        46    1        1.212687948827      21.783425849283       7.613851108588
        47    1        1.212687948827      19.803113889957       4.806168156475
        48    1        1.212687948827      17.822803000000       6.204147269460
        49    1        0.000000000000      27.724359944979       1.360857913013
        50    1        0.000000000000      23.763737095696      -0.067698444905
        51    1        0.000000000000      25.744049055021       2.746273217082
        52    1        1.212687948827      27.724359944979       3.460006836615
        53    1        1.212687948827      25.744049055021       0.640957408980
        54    1        1.212687948827      23.763737095696       2.024781421600
        55    1        0.000000000000      27.724359944979       5.561732913013
        56    1        0.000000000000      23.763737095696       4.133176555095
        57    1        0.000000000000      25.744049055021       6.947148217082
        58    1        1.212687948827      27.724359944979       7.660881836615
        59    1        1.212687948827      25.744049055021       4.841832408980
        60    1        1.212687948827      23.763737095696       6.225656421600
        61    1        0.000000000000      33.665294040675       1.395721478743
        62    1        0.000000000000      29.704670834936      -0.025292544182
        63    1        0.000000000000      31.684983150717       2.787081609060
        64    1        1.212687948827      33.665294040675       3.500133594615
        65    1        1.212687948827      31.684983150717       0.690000104080
        66    1        1.212687948827      29.704670834936       2.076805897775
        67    1        0.000000000000      33.665294040675       5.596596478742
        68    1        0.000000000000      29.704670834936       4.175582455818
        69    1        0.000000000000      31.684983150717       6.987956609060
        70    1        1.212687948827      33.665294040675       7.701008594615
        71    1        1.212687948827      31.684983150717       4.890875104080
        72    1        1.212687948827      29.704670834936       6.277680897775
        73    1        2.425375897654       3.960622849283       1.395019092442
        74    1        2.425375897654       0.000000000000       0.010553102105
        75    1        2.425375897654       1.980310889957       2.805178390437
        76    1        3.638063846481       3.960622849283       3.502387196018
        77    1        3.638063846481       1.980310889957       0.711386170582
        78    1        3.638063846481       0.000000000000       2.116767813440
        79    1        2.425375897654       3.960622849283       5.595894092443
        80    1        2.425375897654       0.000000000000       4.211428102105
        81    1        2.425375897654       1.980310889957       7.006053390437
        82    1        3.638063846481       3.960622849283       7.703262196017
        83    1        3.638063846481       1.980310889957       4.912261170583
        84    1        3.638063846481       0.000000000000       6.317642813440
        85    1        2.425375897654       9.901556944979       1.335417245977
        86    1        2.425375897654       5.940934095696      -0.020523710882
        87    1        2.425375897654       7.921246055021       2.759152007605
        88    1        3.638063846481       9.901556944979       3.428909859427
        89    1        3.638063846481       7.921246055021       0.659104348805
        90    1        3.638063846481       5.940934095696       2.085308300740
        91    1        2.425375897654       9.901556944979       5.536292245978
        92    1        2.425375897654       5.940934095696       4.180351289118
        93    1        2.425375897654       7.921246055021       6.960027007605
        94    1        3.638063846481       9.901556944979       7.629784859427
        95    1        3.638063846481       7.921246055021       4.859979348805
        96    1        3.638063846481       5.940934095696       6.286183300740
        97    1        2.425375897654      15.842491040675       1.292829783437
        98    1        2.425375897654      11.881868904304      -0.085338339117
        99    1        2.425375897654      13.862180150717       2.701030297438
       100    1        3.638063846481      15.842491040675       3.378656220100
       101    1        3.638063846481      13.862180150717       0.586399889197
       102    1        3.638063846481      11.881868904304       2.002913430717
       103    1        2.425375897654      15.842491040675       5.493704783437
       104    1        2.425375897654      11.881868904304       4.115536660882
       105    1        2.425375897654      13.862180150717       6.901905297437
       106    1        3.638063846481      15.842491040675       7.579531220100
       107    1        3.638063846481      13.862180150717       4.787274889197
       108    1        3.638063846481      11.881868904304       6.203788430718
       109    1        2.425375897654      21.783425849283       1.300739358922
       110    1        2.425375897654      17.822803000000      -0.109962440070
       111    1        2.425375897654      19.803113889957       2.693120637935
       112    1        3.638063846481      21.783425849283       3.386982942473
       113    1        3.638063846481      19.803113889957       0.578073166825
       114    1        3.638063846481      17.822803000000       1.975839883570
       115    1        2.425375897654      21.783425849283       5.501614358922
       116    1        2.425375897654      17.822803000000       4.090912559930
       117    1        2.425375897654      19.803113889957       6.893995637935
       118    1        3.638063846481      21.783425849283       7.587857942472
       119    1        3.638063846481      19.803113889957       4.778948166825
       120    1        3.638063846481      17.822803000000       6.176714883570
       121    1        2.425375897654      27.724359944979       1.358861069090
       122    1        2.425375897654      23.763737095696      -0.085338339117
       123    1        2.425375897654      25.744049055021       2.735708184492
       124    1        3.638063846481      27.724359944979       3.459687402080
       125    1        3.638063846481      25.744049055021       0.628326806152
       126    1        3.638063846481      23.763737095696       2.002913430717
       127    1        2.425375897654      27.724359944979       5.559736069090
       128    1        2.425375897654      23.763737095696       4.115536660882
       129    1        2.425375897654      25.744049055021       6.936583184493
       130    1        3.638063846481      27.724359944979       7.660562402080
       131    1        3.638063846481      25.744049055021       4.829201806153
       132    1        3.638063846481      23.763737095696       6.203788430718
       133    1        2.425375897654      33.665294040675       1.404887451923
       134    1        2.425375897654      29.704670834936      -0.020523710882
       135    1        2.425375897654      31.684983150717       2.795310030957
       136    1        3.638063846481      33.665294040675       3.511969223857
       137    1        3.638063846481      31.684983150717       0.701804142742
       138    1        3.638063846481      29.704670834936       2.085308300740
       139    1        2.425375897654      33.665294040675       5.605762451922
       140    1        2.425375897654      29.704670834936       4.180351289118
       141    1        2.425375897654      31.684983150717       6.996185030958
       142    1        3.638063846481      33.665294040675       7.712844223857
       143    1        3.638063846481      31.684983150717       4.902679142742
       144    1        3.638063846481      29.704670834936       6.286183300740
       145    1        4.850753153519       3.960622849283       1.411581882305
       146    1        4.850753153519       0.000000000000       0.023069357115
       147    1        4.850753153519       1.980310889957       2.820107123942
       148    1        6.063441102346       3.960622849283       3.524920437465
       149    1        6.063441102346       1.980310889957       0.729620908695
       150    1        6.063441102346       0.000000000000       2.131115145845
       151    1        4.850753153519       3.960622849283       5.612456882305
       152    1        4.850753153519       0.000000000000       4.223944357115
       153    1        4.850753153519       1.980310889957       7.020982123942
       154    1        6.063441102346       3.960622849283       7.725795437465
       155    1        6.063441102346       1.980310889957       4.930495908695
       156    1        6.063441102346       0.000000000000       6.331990145845
       157    1        4.850753153519       9.901556944979       1.319229174165
       158    1        4.850753153519       5.940934095696      -0.006030692133
       159    1        4.850753153519       7.921246055021       2.762157817685
       160    1        6.063441102346       9.901556944979       3.405221041285
       161    1        6.063441102346       7.921246055021       0.669574105550
       162    1        6.063441102346       5.940934095696       2.109485932697
       163    1        4.850753153519       9.901556944979       5.520104174165
       164    1        4.850753153519       5.940934095696       4.194844307868
       165    1        4.850753153519       7.921246055021       6.963032817685
       166    1        6.063441102346       9.901556944979       7.606096041285
       167    1        6.063441102346       7.921246055021       4.870449105550
       168    1        6.063441102346       5.940934095696       6.310360932697
       169    1        4.850753153519      15.842491040675       1.261497389215
       170    1        4.850753153519      11.881868904304      -0.113537468712
       171    1        4.850753153519      13.862180150717       2.669695466708
       172    1        6.063441102346      15.842491040675       3.343210245060
       173    1        6.063441102346      13.862180150717       0.548725181935
       174    1        6.063441102346      11.881868904304       1.964892151267
       175    1        4.850753153519      15.842491040675       5.462372389215
       176    1        4.850753153519      11.881868904304       4.087337531287
       177    1        4.850753153519      13.862180150717       6.870570466708
       178    1        6.063441102346      15.842491040675       7.544085245060
       179    1        6.063441102346      13.862180150717       4.749600181935
       180    1        6.063441102346      11.881868904304       6.165767151267
       181    1        4.850753153519      21.783425849283       1.269404528192
       182    1        4.850753153519      17.822803000000      -0.141060593502
       183    1        4.850753153519      19.803113889957       2.661788327730
       184    1        6.063441102346      21.783425849283       3.349308235210
       185    1        6.063441102346      19.803113889957       0.542627191785
       186    1        6.063441102346      17.822803000000       1.941301549582
       187    1        4.850753153519      21.783425849283       5.470279528193
       188    1        4.850753153519      17.822803000000       4.059814406497
       189    1        4.850753153519      19.803113889957       6.862663327730
       190    1        6.063441102346      21.783425849283       7.550183235210
       191    1        6.063441102346      19.803113889957       4.743502191785
       192    1        6.063441102346      17.822803000000       6.142176549582
       193    1        4.850753153519      27.724359944979       1.361866879170
       194    1        4.850753153519      23.763737095696      -0.113537468712
       195    1        4.850753153519      25.744049055021       2.719520112680
       196    1        6.063441102346      27.724359944979       3.470157158825
       197    1        6.063441102346      25.744049055021       0.604637988010
       198    1        6.063441102346      23.763737095696       1.964892151267
       199    1        4.850753153519      27.724359944979       5.562741879170
       200    1        4.850753153519      23.763737095696       4.087337531287
       201    1        4.850753153519      25.744049055021       6.920395112680
       202    1        6.063441102346      27.724359944979       7.671032158825
       203    1        6.063441102346      25.744049055021       4.805512988010
       204    1        6.063441102346      23.763737095696       6.165767151267
       205    1        4.850753153519      33.665294040675       1.419816185427
       206    1        4.850753153519      29.704670834936      -0.006030692133
       207    1        4.850753153519      31.684983150717       2.811872820820
       208    1        6.063441102346      33.665294040675       3.530203961970
       209    1        6.063441102346      31.684983150717       0.724337384190
       210    1        6.063441102346      29.704670834936       2.109485932697
       211    1        4.850753153519      33.665294040675       5.620691185427
       212    1        4.850753153519      29.704670834936       4.194844307868
       213    1        4.850753153519      31.684983150717       7.012747820820
       214    1        6.063441102346      33.665294040675       7.731078961970
       215    1        6.063441102346      31.684983150717       4.925212384190
       216    1        6.063441102346      29.704670834936       6.310360932697
       217    1        7.276129051173       3.960622849283       1.440695458370
       218    1        7.276129051173       0.000000000000       0.038930432817
       219    1        7.276129051173       1.980310889957       2.841412617662
       220    1        8.488817000000       3.960622849283       3.559545309478
       221    1        8.488817000000       1.980310889957       0.753101363438
       222    1        8.488817000000       0.000000000000       2.147897893522
       223    1        7.276129051173       3.960622849283       5.641570458370
       224    1        7.276129051173       0.000000000000       4.239805432817
       225    1        7.276129051173       1.980310889957       7.042287617663
       226    1        8.488817000000       3.960622849283       7.760420309477
       227    1        8.488817000000       1.980310889957       4.953976363437
       228    1        8.488817000000       0.000000000000       6.348772893522
       229    1        7.276129051173       9.901556944979       1.274500693673
       230    1        7.276129051173       5.940934095696       0.032832274633
       231    1        7.276129051173       7.921246055021       2.793862661485
       232    1        8.488817000000       9.901556944979       3.291262896950
       233    1        8.488817000000       7.921246055021       0.770966004462
       234    1        8.488817000000       5.940934095696       2.165296573492
       235    1        7.276129051173       9.901556944979       5.475375693673
       236    1        7.276129051173       5.940934095696       4.233707274632
       237    1        7.276129051173       7.921246055021       6.994737661485
       238    1        8.488817000000       9.901556944979       7.492137896950
       239    1        8.488817000000       7.921246055021       4.971841004463
       240    1        8.488817000000       5.940934095696       6.366171573493
       241    1        7.276129051173      15.842491040675       1.222514529478
       242    1        7.276129051173      11.881868904304      -0.166131247468
       243    1        7.276129051173      13.862180150717       2.625358339730
       244    1        8.488817000000      15.842491040675       3.302056457140
       245    1        8.488817000000      13.862180150717       0.499149227762
       246    1        8.488817000000      11.881868904304       1.895754066500
       247    1        7.276129051173      15.842491040675       5.423389529478
       248    1        7.276129051173      11.881868904304       4.034743752533
       249    1        7.276129051173      13.862180150717       6.826233339730
       250    1        8.488817000000      15.842491040675       7.502931457140
       251    1        8.488817000000      13.862180150717       4.700024227763
       252    1        8.488817000000      11.881868904304       6.096629066500
       253    1        7.276129051173      21.783425849283       1.225067401215
       254    1        7.276129051173      17.822803000000      -0.178330840520
       255    1        7.276129051173      19.803113889957       2.622805467992
       256    1        8.488817000000      21.783425849283       3.299732281038
       257    1        8.488817000000      19.803113889957       0.501473403865
       258    1        8.488817000000      17.822803000000       1.902558391772
       259    1        7.276129051173      21.783425849283       5.425942401215
       260    1        7.276129051173      17.822803000000       4.022544159480
       261    1        7.276129051173      19.803113889957       6.823680467993
       262    1        8.488817000000      21.783425849283       7.500607281037
       263    1        8.488817000000      19.803113889957       4.702348403865
       264    1        8.488817000000      17.822803000000       6.103433391772
       265    1        7.276129051173      27.724359944979       1.393571722970
       266    1        7.276129051173      23.763737095696      -0.166131247468
       267    1        7.276129051173      25.744049055021       2.674791632187
       268    1        8.488817000000      27.724359944979       3.571549057737
       269    1        8.488817000000      25.744049055021       0.490679843675
       270    1        8.488817000000      23.763737095696       1.895754066500
       271    1        7.276129051173      27.724359944979       5.594446722970
       272    1        7.276129051173      23.763737095696       4.034743752533
       273    1        7.276129051173      25.744049055021       6.875666632188
       274    1        8.488817000000      27.724359944979       7.772424057738
       275    1        8.488817000000      25.744049055021       4.691554843675
       276    1        8.488817000000      23.763737095696       6.096629066500
       277    1        7.276129051173      33.665294040675       1.441121679148
       278    1        7.276129051173      29.704670834936       0.032832274633
       279    1        7.276129051173      31.684983150717       2.840986396885
       280    1        8.488817000000      33.665294040675       3.553684416713
       281    1        8.488817000000      31.684983150717       0.758962256203
       282    1        8.488817000000      29.704670834936       2.165296573492
       283    1        7.276129051173      33.665294040675       5.641996679147
       284    1        7.276129051173      29.704670834936       4.233707274632
       285    1        7.276129051173      31.684983150717       7.041861396885
       286    1        8.488817000000      33.665294040675       7.754559416713
       287    1        8.488817000000      31.684983150717       4.959837256202
       288    1        8.488817000000      29.704670834936       6.366171573493
       289    1        9.701504948827       3.960622849283       1.477449081780
       290    1        9.701504948827       0.000000000000       0.055811817040
       291    1        9.701504948827       1.980310889957       2.865523119637
       292    1       10.914192897654       3.960622849283       3.593869902945
       293    1       10.914192897654       1.980310889957       0.776006718392
       294    1       10.914192897654       0.000000000000       2.163953301702
       295    1        9.701504948827       3.960622849283       5.678324081780
       296    1        9.701504948827       0.000000000000       4.256686817040
       297    1        9.701504948827       1.980310889957       7.066398119638
       298    1       10.914192897654       3.960622849283       7.794744902945
       299    1       10.914192897654       1.980310889957       4.976881718392
       300    1       10.914192897654       0.000000000000       6.364828301703
       301    1        9.701504948827       9.901556944979       1.107439288462
       302    1        9.701504948827       5.940934095696       0.096915026425
       303    1        9.701504948827       7.921246055021       2.949096419115
       304    1       10.914192897654       9.901556944979       3.178460665380
       305    1       10.914192897654       7.921246055021       0.872966610162
       306    1       10.914192897654       5.940934095696       2.221210387778
       307    1        9.701504948827       9.901556944979       5.308314288462
       308    1        9.701504948827       5.940934095696       4.297790026425
       309    1        9.701504948827       7.921246055021       7.149971419115
       310    1       10.914192897654       9.901556944979       7.379335665380
       311    1       10.914192897654       7.921246055021       5.073841610162
       312    1       10.914192897654       5.940934095696       6.422085387777
       313    1        9.701504948827      15.842491040675       1.181303189570
       314    1        9.701504948827      11.881868904304      -0.242820152995
       315    1        9.701504948827      13.862180150717       2.574328966825
       316    1       10.914192897654      15.842491040675       3.263233482705
       317    1       10.914192897654      13.862180150717       0.451647077542
       318    1       10.914192897654      11.881868904304       1.828283393037
       319    1        9.701504948827      15.842491040675       5.382178189570
       320    1        9.701504948827      11.881868904304       3.958054847005
       321    1        9.701504948827      13.862180150717       6.775203966825
       322    1       10.914192897654      15.842491040675       7.464108482705
       323    1       10.914192897654      13.862180150717       4.652522077542
       324    1       10.914192897654      11.881868904304       6.029158393038
       325    1        9.701504948827      21.783425849283       1.174038028310
       326    1        9.701504948827      17.822803000000      -0.216825978670
       327    1        9.701504948827      19.803113889957       2.581594128085
       328    1       10.914192897654      21.783425849283       3.252230130817
       329    1       10.914192897654      19.803113889957       0.462650429430
       330    1       10.914192897654      17.822803000000       1.866233341630
       331    1        9.701504948827      21.783425849283       5.374913028310
       332    1        9.701504948827      17.822803000000       3.984049021330
       333    1        9.701504948827      19.803113889957       6.782469128085
       334    1       10.914192897654      21.783425849283       7.453105130817
       335    1       10.914192897654      19.803113889957       4.663525429430
       336    1       10.914192897654      17.822803000000       6.067108341630
       337    1        9.701504948827      27.724359944979       1.548805480600
       338    1        9.701504948827      23.763737095696      -0.242820152995
       339    1        9.701504948827      25.744049055021       2.507730226977
       340    1       10.914192897654      27.724359944979       3.673549663438
       341    1       10.914192897654      25.744049055021       0.377877612105
       342    1       10.914192897654      23.763737095696       1.828283393037
       343    1        9.701504948827      27.724359944979       5.749680480600
       344    1        9.701504948827      23.763737095696       3.958054847005
       345    1        9.701504948827      25.744049055021       6.708605226977
       346    1       10.914192897654      27.724359944979       7.874424663437
       347    1       10.914192897654      25.744049055021       4.578752612105
       348    1       10.914192897654      23.763737095696       6.029158393038
       349    1        9.701504948827      33.665294040675       1.465232181122
       350    1        9.701504948827      29.704670834936       0.096915026425
       351    1        9.701504948827      31.684983150717       2.877740020295
       352    1       10.914192897654      33.665294040675       3.576589771667
       353    1       10.914192897654      31.684983150717       0.793286849670
       354    1       10.914192897654      29.704670834936       2.221210387778
       355    1        9.701504948827      33.665294040675       5.666107181123
       356    1        9.701504948827      29.704670834936       4.297790026425
       357    1        9.701504948827      31.684983150717       7.078615020295
       358    1       10.914192897654      33.665294040675       7.777464771667
       359    1       10.914192897654      31.684983150717       4.994161849670
       360    1       10.914192897654      29.704670834936       6.422085387777
       361    1       12.126880846481       3.960622849283       1.505912446412
       362    1       12.126880846481       0.000000000000       0.070181750152
       363    1       12.126880846481       1.980310889957       2.885631784070
       364    1       13.339569134861       3.960622849283       3.615298314267
       365    1       13.339569134861       1.980310889957       0.792326361610
       366    1       13.339569134861       0.000000000000       2.175972173112
       367    1       12.126880846481       3.960622849283       5.706787446413
       368    1       12.126880846481       0.000000000000       4.271056750152
       369    1       12.126880846481       1.980310889957       7.086506784070
       370    1       13.339569134861       3.960622849283       7.816173314268