Position data Generated by SPaMD
24	atoms
1	atom types
0.000000		4.475845	xlo xhi
0.000000		5.481768	ylo yhi
0.000000		15.504780	zlo zhi

Atoms

1	1	0.000000	2.740884	0.000000
2	1	0.000000	0.000000	0.000000
3	1	0.000000	0.913628	2.584130
4	1	2.237922	4.568140	1.292065
5	1	2.237922	1.827256	1.292065
6	1	2.237922	2.740884	3.876195
7	1	2.237922	0.000000	3.876195
8	1	2.237922	0.913628	6.460325
9	1	0.000000	3.654512	2.584130
10	1	0.000000	4.568140	5.168260
11	1	0.000000	1.827256	5.168260
12	1	2.237922	3.654512	6.460325
13	1	0.000000	2.740884	7.752390
14	1	0.000000	0.000000	7.752390
15	1	0.000000	4.568140	10.336520
16	1	2.237922	0.913628	9.044455
17	1	2.237922	3.654512	9.044455
18	1	2.237922	2.740884	11.628585
19	1	2.237922	0.000000	11.628585
20	1	2.237922	4.568140	14.212715
21	1	0.000000	1.827256	10.336520
22	1	0.000000	0.913628	12.920650
23	1	0.000000	3.654512	12.920650
24	1	2.237922	1.827256	14.212715
