Position data Generated by SPaMD
144	atoms
1	atom types
0.000000		5.112255	xlo xhi
0.000000		8.854685	ylo yhi
0.000000		37.567247	zlo zhi

Atoms

1	1	2.556127	0.000000	9.391812
2	1	0.000000	4.427342	9.391812
3	1	1.278064	2.213671	9.391812
4	1	0.000000	0.000000	9.391812
5	1	0.000000	1.475781	11.478881
6	1	3.834191	2.213671	9.391812
7	1	3.834191	6.641014	9.391812
8	1	1.278064	6.641014	9.391812
9	1	2.556127	4.427342	9.391812
10	1	2.556127	5.903123	11.478881
11	1	3.834191	3.689452	11.478881
12	1	1.278064	3.689452	11.478881
13	1	2.556127	1.475781	11.478881
14	1	2.556127	2.951562	13.565950
15	1	3.834191	0.737890	13.565950
16	1	1.278064	0.737890	13.565950
17	1	1.278064	8.116795	11.478881
18	1	0.000000	5.903123	11.478881
19	1	0.000000	7.378904	13.565950
20	1	1.278064	5.165233	13.565950
21	1	0.000000	2.951562	13.565950
22	1	3.834191	8.116795	11.478881
23	1	3.834191	5.165233	13.565950
24	1	2.556127	7.378904	13.565950
25	1	2.556127	0.000000	15.653019
26	1	0.000000	4.427342	15.653019
27	1	1.278064	2.213671	15.653019
28	1	0.000000	0.000000	15.653019
29	1	0.000000	1.475781	17.740089
30	1	3.834191	2.213671	15.653019
31	1	3.834191	6.641014	15.653019
32	1	1.278064	6.641014	15.653019
33	1	2.556127	4.427342	15.653019
34	1	2.556127	5.903123	17.740089
35	1	3.834191	3.689452	17.740089
36	1	1.278064	3.689452	17.740089
37	1	2.556127	1.475781	17.740089
38	1	2.556127	2.951562	1.043535
39	1	3.834191	0.737890	1.043535
40	1	1.278064	0.737890	1.043535
41	1	1.278064	8.116795	17.740089
42	1	0.000000	5.903123	17.740089
43	1	0.000000	7.378904	1.043535
44	1	1.278064	5.165233	1.043535
45	1	0.000000	2.951562	1.043535
46	1	3.834191	8.116795	17.740089
47	1	3.834191	5.165233	1.043535
48	1	2.556127	7.378904	1.043535
49	1	2.556127	0.000000	3.130604
50	1	0.000000	4.427342	3.130604
51	1	1.278064	2.213671	3.130604
52	1	0.000000	0.000000	3.130604
53	1	0.000000	1.475781	5.217673
54	1	3.834191	2.213671	3.130604
55	1	3.834191	6.641014	3.130604
56	1	1.278064	6.641014	3.130604
57	1	2.556127	4.427342	3.130604
58	1	2.556127	5.903123	5.217673
59	1	3.834191	3.689452	5.217673
60	1	1.278064	3.689452	5.217673
61	1	2.556127	1.475781	5.217673
62	1	2.556127	2.951562	7.304742
63	1	3.834191	0.737890	7.304742
64	1	1.278064	0.737890	7.304742
65	1	1.278064	8.116795	5.217673
66	1	0.000000	5.903123	5.217673
67	1	0.000000	7.378904	7.304742
68	1	1.278064	5.165233	7.304742
69	1	0.000000	2.951562	7.304742
70	1	3.834191	8.116795	5.217673
71	1	3.834191	5.165233	7.304742
72	1	2.556127	7.378904	7.304742
73	1	2.556127	2.951562	28.175435
74	1	0.000000	7.378904	28.175435
75	1	1.278064	5.165233	28.175435
76	1	0.000000	2.951562	28.175435
77	1	0.000000	4.427342	26.088366
78	1	3.834191	5.165233	28.175435
79	1	3.834191	0.737890	28.175435
80	1	1.278064	0.737890	28.175435
81	1	2.556127	7.378904	28.175435
82	1	2.556127	8.854685	26.088366
83	1	3.834191	6.641014	26.088366
84	1	1.278064	6.641014	26.088366
85	1	2.556127	4.427342	26.088366
86	1	2.556127	5.903123	24.001297
87	1	3.834191	3.689452	24.001297
88	1	1.278064	3.689452	24.001297
89	1	1.278064	2.213671	26.088366
90	1	0.000000	8.854685	26.088366
91	1	0.000000	1.475781	24.001297
92	1	1.278064	8.116795	24.001297
93	1	0.000000	5.903123	24.001297
94	1	3.834191	2.213671	26.088366
95	1	3.834191	8.116795	24.001297
96	1	2.556127	1.475781	24.001297
97	1	2.556127	2.951562	21.914227
98	1	0.000000	7.378904	21.914227
99	1	1.278064	5.165233	21.914227
100	1	0.000000	2.951562	21.914227
101	1	0.000000	4.427342	19.827158
102	1	3.834191	5.165233	21.914227
103	1	3.834191	0.737890	21.914227
104	1	1.278064	0.737890	21.914227
105	1	2.556127	7.378904	21.914227
106	1	2.556127	8.854685	19.827158
107	1	3.834191	6.641014	19.827158
108	1	1.278064	6.641014	19.827158
109	1	2.556127	4.427342	19.827158
110	1	2.556127	5.903123	36.523712
111	1	3.834191	3.689452	36.523712
112	1	1.278064	3.689452	36.523712
113	1	1.278064	2.213671	19.827158
114	1	0.000000	8.854685	19.827158
115	1	0.000000	1.475781	36.523712
116	1	1.278064	8.116795	36.523712
117	1	0.000000	5.903123	36.523712
118	1	3.834191	2.213671	19.827158
119	1	3.834191	8.116795	36.523712
120	1	2.556127	1.475781	36.523712
121	1	2.556127	2.951562	34.436643
122	1	0.000000	7.378904	34.436643
123	1	1.278064	5.165233	34.436643
124	1	0.000000	2.951562	34.436643
125	1	0.000000	4.427342	32.349574
126	1	3.834191	5.165233	34.436643
127	1	3.834191	0.737890	34.436643
128	1	1.278064	0.737890	34.436643
129	1	2.556127	7.378904	34.436643
130	1	2.556127	8.854685	32.349574
131	1	3.834191	6.641014	32.349574
132	1	1.278064	6.641014	32.349574
133	1	2.556127	4.427342	32.349574
134	1	2.556127	5.903123	30.262504
135	1	3.834191	3.689452	30.262504
136	1	1.278064	3.689452	30.262504
137	1	1.278064	2.213671	32.349574
138	1	0.000000	8.854685	32.349574
139	1	0.000000	1.475781	30.262504
140	1	1.278064	8.116795	30.262504
141	1	0.000000	5.903123	30.262504
142	1	3.834191	2.213671	32.349574
143	1	3.834191	8.116795	30.262504
144	1	2.556127	1.475781	30.262504
