Position data Generated by SPaMD
2	atoms
2	atom types
0.000000		2.857100	xlo xhi
0.000000		2.857100	ylo yhi
0.000000		2.857100	zlo zhi

Atoms

1	1	0.000000	0.000000	0.000000
2	2	1.428550	1.428550	1.428550
