Kikuchi_sphere_radius
39.84063745
Kikuchi_line_intensity
228
-1.62371477	-0.40176520	0.16401996	2.77439025
-1.62371477	0.40176520	0.16401996	2.77439025
-1.39175552	-0.80353039	-0.49205988	2.77439032
-1.39175552	-0.80353039	0.00000000	3.20943837
-1.39175552	-0.80353039	0.49205988	2.77439032
-1.39175552	0.00000000	-0.49205988	4.19782925
-1.39175552	0.00000000	0.00000000	5.02731513
-1.39175552	0.00000000	0.49205988	4.19782925
-1.39175552	0.80353039	-0.49205988	2.77439032
-1.39175552	0.80353039	0.00000000	3.20943837
-1.39175552	0.80353039	0.49205988	2.77439032
-1.15979627	-1.20529559	-0.16401996	2.77439041
-1.15979627	-0.40176520	-1.14813971	2.77439030
-1.15979627	-0.40176520	-0.65607983	5.02731523
-1.15979627	-0.40176520	-0.16401996	7.08234879
-1.15979627	-0.40176520	0.32803992	6.58090452
-1.15979627	-0.40176520	0.82009979	4.19782932
-1.15979627	0.40176520	-1.14813971	2.77439030
-1.15979627	0.40176520	-0.65607983	5.02731523
-1.15979627	0.40176520	-0.16401996	7.08234879
-1.15979627	0.40176520	0.32803992	6.58090452
-1.15979627	0.40176520	0.82009979	4.19782932
-1.15979627	1.20529559	-0.16401996	2.77439041
-0.92783701	-0.80353039	-0.82009979	4.19782944
-0.92783701	-0.80353039	-0.32803992	6.58090475
-0.92783701	-0.80353039	0.16401996	7.08234904
-0.92783701	-0.80353039	0.65607983	5.02731538
-0.92783701	-0.80353039	1.14813971	2.77439037
-0.92783701	0.00000000	-1.31215967	3.20943836
-0.92783701	0.00000000	-0.82009979	7.08234882
-0.92783701	0.00000000	-0.32803992	12.97534240
-0.92783701	0.00000000	0.16401996	14.39276105
-0.92783701	0.00000000	0.65607983	8.98379965
-0.92783701	0.00000000	1.14813971	4.19782934
-0.92783701	0.80353039	-0.82009979	4.19782944
-0.92783701	0.80353039	-0.32803992	6.58090475
-0.92783701	0.80353039	0.16401996	7.08234904
-0.92783701	0.80353039	0.65607983	5.02731538
-0.92783701	0.80353039	1.14813971	2.77439037
-0.69587776	-1.20529559	-0.49205988	4.19782960
-0.69587776	-1.20529559	0.00000000	5.02731559
-0.69587776	-1.20529559	0.49205988	4.19782960
-0.69587776	-0.40176520	-1.47617963	2.77439034
-0.69587776	-0.40176520	-0.98411975	6.58090466
-0.69587776	-0.40176520	-0.49205988	14.39276140
-0.69587776	-0.40176520	0.00000000	20.50936848
-0.69587776	-0.40176520	0.49205988	14.39276140
-0.69587776	-0.40176520	0.98411975	6.58090466
-0.69587776	-0.40176520	1.47617963	2.77439034
-0.69587776	0.40176520	-1.47617963	2.77439034
-0.69587776	0.40176520	-0.98411975	6.58090466
-0.69587776	0.40176520	-0.49205988	14.39276140
-0.69587776	0.40176520	0.00000000	20.50936848
-0.69587776	0.40176520	0.49205988	14.39276140
-0.69587776	0.40176520	0.98411975	6.58090466
-0.69587776	0.40176520	1.47617963	2.77439034
-0.69587776	1.20529559	-0.49205988	4.19782960
-0.69587776	1.20529559	0.00000000	5.02731559
-0.69587776	1.20529559	0.49205988	4.19782960
-0.46391851	-1.60706078	-0.16401996	2.77439056
-0.46391851	-0.80353039	-1.14813971	4.19782949
-0.46391851	-0.80353039	-0.65607983	8.98380013
-0.46391851	-0.80353039	-0.16401996	14.39276203
-0.46391851	-0.80353039	0.32803992	12.97534324
-0.46391851	-0.80353039	0.82009979	7.08234916
-0.46391851	-0.80353039	1.31215967	3.20943846
-0.46391851	0.00000000	-1.14813971	7.08234893
-0.46391851	0.00000000	-0.65607983	20.50936843
-0.46391851	0.00000000	-0.16401996	52.49093855
-0.46391851	0.00000000	0.32803992	40.59841012
-0.46391851	0.00000000	0.82009979	14.39276138
-0.46391851	0.00000000	1.31215967	5.02731531
-0.46391851	0.80353039	-1.14813971	4.19782949
-0.46391851	0.80353039	-0.65607983	8.98380013
-0.46391851	0.80353039	-0.16401996	14.39276203
-0.46391851	0.80353039	0.32803992	12.97534324
-0.46391851	0.80353039	0.82009979	7.08234916
-0.46391851	0.80353039	1.31215967	3.20943846
-0.46391851	1.60706078	-0.16401996	2.77439056
-0.23195925	-1.20529559	-0.82009979	4.19782963
-0.23195925	-1.20529559	-0.32803992	6.58090513
-0.23195925	-1.20529559	0.16401996	7.08234947
-0.23195925	-1.20529559	0.65607983	5.02731563
-0.23195925	-1.20529559	1.14813971	2.77439047
-0.23195925	-0.40176520	-1.31215967	5.02731536
-0.23195925	-0.40176520	-0.82009979	14.39276163
-0.23195925	-0.40176520	-0.32803992	40.59841162
-0.23195925	-0.40176520	0.16401996	52.49094098
-0.23195925	-0.40176520	0.65607983	20.50936887
-0.23195925	-0.40176520	1.14813971	7.08234902
-0.23195925	0.40176520	-1.31215967	5.02731536
-0.23195925	0.40176520	-0.82009979	14.39276163
-0.23195925	0.40176520	-0.32803992	40.59841162
-0.23195925	0.40176520	0.16401996	52.49094098
-0.23195925	0.40176520	0.65607983	20.50936887
-0.23195925	0.40176520	1.14813971	7.08234902
-0.23195925	1.20529559	-0.82009979	4.19782963
-0.23195925	1.20529559	-0.32803992	6.58090513
-0.23195925	1.20529559	0.16401996	7.08234947
-0.23195925	1.20529559	0.65607983	5.02731563
-0.23195925	1.20529559	1.14813971	2.77439047
0.00000000	-1.60706078	-0.49205988	2.77439057
0.00000000	-1.60706078	0.00000000	3.20943868
0.00000000	-1.60706078	0.49205988	2.77439057
0.00000000	-0.80353039	-1.47617963	2.77439040
0.00000000	-0.80353039	-0.98411975	6.58090488
0.00000000	-0.80353039	-0.49205988	14.39276214
0.00000000	-0.80353039	0.00000000	20.50936978
0.00000000	-0.80353039	0.49205988	14.39276214
0.00000000	-0.80353039	0.98411975	6.58090488
0.00000000	-0.80353039	1.47617963	2.77439040
0.00000000	0.00000000	-1.47617963	4.19782941
0.00000000	0.00000000	-0.98411975	12.97534278
0.00000000	0.00000000	-0.49205988	52.49093965
0.00000000	0.00000000	0.49205988	52.49093965
0.00000000	0.00000000	0.98411975	12.97534278
0.00000000	0.00000000	1.47617963	4.19782941
0.00000000	0.80353039	-1.47617963	2.77439040
0.00000000	0.80353039	-0.98411975	6.58090488
0.00000000	0.80353039	-0.49205988	14.39276214
0.00000000	0.80353039	0.00000000	20.50936978
0.00000000	0.80353039	0.49205988	14.39276214
0.00000000	0.80353039	0.98411975	6.58090488
0.00000000	0.80353039	1.47617963	2.77439040
0.00000000	1.60706078	-0.49205988	2.77439057
0.00000000	1.60706078	0.00000000	3.20943868
0.00000000	1.60706078	0.49205988	2.77439057
0.23195925	-1.20529559	-1.14813971	2.77439047
0.23195925	-1.20529559	-0.65607983	5.02731563
0.23195925	-1.20529559	-0.16401996	7.08234947
0.23195925	-1.20529559	0.32803992	6.58090513
0.23195925	-1.20529559	0.82009979	4.19782963
0.23195925	-0.40176520	-1.14813971	7.08234902
0.23195925	-0.40176520	-0.65607983	20.50936887
0.23195925	-0.40176520	-0.16401996	52.49094098
0.23195925	-0.40176520	0.32803992	40.59841162
0.23195925	-0.40176520	0.82009979	14.39276163
0.23195925	-0.40176520	1.31215967	5.02731536
0.23195925	0.40176520	-1.14813971	7.08234902
0.23195925	0.40176520	-0.65607983	20.50936887
0.23195925	0.40176520	-0.16401996	52.49094098
0.23195925	0.40176520	0.32803992	40.59841162
0.23195925	0.40176520	0.82009979	14.39276163
0.23195925	0.40176520	1.31215967	5.02731536
0.23195925	1.20529559	-1.14813971	2.77439047
0.23195925	1.20529559	-0.65607983	5.02731563
0.23195925	1.20529559	-0.16401996	7.08234947
0.23195925	1.20529559	0.32803992	6.58090513
0.23195925	1.20529559	0.82009979	4.19782963
0.46391851	-1.60706078	0.16401996	2.77439056
0.46391851	-0.80353039	-1.31215967	3.20943846
0.46391851	-0.80353039	-0.82009979	7.08234916
0.46391851	-0.80353039	-0.32803992	12.97534324
0.46391851	-0.80353039	0.16401996	14.39276203
0.46391851	-0.80353039	0.65607983	8.98380013
0.46391851	-0.80353039	1.14813971	4.19782949
0.46391851	0.00000000	-1.31215967	5.02731531
0.46391851	0.00000000	-0.82009979	14.39276138
0.46391851	0.00000000	-0.32803992	40.59841012
0.46391851	0.00000000	0.16401996	52.49093855
0.46391851	0.00000000	0.65607983	20.50936843
0.46391851	0.00000000	1.14813971	7.08234893
0.46391851	0.80353039	-1.31215967	3.20943846
0.46391851	0.80353039	-0.82009979	7.08234916
0.46391851	0.80353039	-0.32803992	12.97534324
0.46391851	0.80353039	0.16401996	14.39276203
0.46391851	0.80353039	0.65607983	8.98380013
0.46391851	0.80353039	1.14813971	4.19782949
0.46391851	1.60706078	0.16401996	2.77439056
0.69587776	-1.20529559	-0.49205988	4.19782960
0.69587776	-1.20529559	0.00000000	5.02731559
0.69587776	-1.20529559	0.49205988	4.19782960
0.69587776	-0.40176520	-1.47617963	2.77439034
0.69587776	-0.40176520	-0.98411975	6.58090466
0.69587776	-0.40176520	-0.49205988	14.39276140
0.69587776	-0.40176520	0.00000000	20.50936848
0.69587776	-0.40176520	0.49205988	14.39276140
0.69587776	-0.40176520	0.98411975	6.58090466
0.69587776	-0.40176520	1.47617963	2.77439034
0.69587776	0.40176520	-1.47617963	2.77439034
0.69587776	0.40176520	-0.98411975	6.58090466
0.69587776	0.40176520	-0.49205988	14.39276140
0.69587776	0.40176520	0.00000000	20.50936848
0.69587776	0.40176520	0.49205988	14.39276140
0.69587776	0.40176520	0.98411975	6.58090466
0.69587776	0.40176520	1.47617963	2.77439034
0.69587776	1.20529559	-0.49205988	4.19782960
0.69587776	1.20529559	0.00000000	5.02731559
0.69587776	1.20529559	0.49205988	4.19782960
0.92783701	-0.80353039	-1.14813971	2.77439037
0.92783701	-0.80353039	-0.65607983	5.02731538
0.92783701	-0.80353039	-0.16401996	7.08234904
0.92783701	-0.80353039	0.32803992	6.58090475
0.92783701	-0.80353039	0.82009979	4.19782944
0.92783701	0.00000000	-1.14813971	4.19782934
0.92783701	0.00000000	-0.65607983	8.98379965
0.92783701	0.00000000	-0.16401996	14.39276105
0.92783701	0.00000000	0.32803992	12.97534240
0.92783701	0.00000000	0.82009979	7.08234882
0.92783701	0.00000000	1.31215967	3.20943836
0.92783701	0.80353039	-1.14813971	2.77439037
0.92783701	0.80353039	-0.65607983	5.02731538
0.92783701	0.80353039	-0.16401996	7.08234904
0.92783701	0.80353039	0.32803992	6.58090475
0.92783701	0.80353039	0.82009979	4.19782944
1.15979627	-1.20529559	0.16401996	2.77439041
1.15979627	-0.40176520	-0.82009979	4.19782932
1.15979627	-0.40176520	-0.32803992	6.58090452
1.15979627	-0.40176520	0.16401996	7.08234879
1.15979627	-0.40176520	0.65607983	5.02731523
1.15979627	-0.40176520	1.14813971	2.77439030
1.15979627	0.40176520	-0.82009979	4.19782932
1.15979627	0.40176520	-0.32803992	6.58090452
1.15979627	0.40176520	0.16401996	7.08234879
1.15979627	0.40176520	0.65607983	5.02731523
1.15979627	0.40176520	1.14813971	2.77439030
1.15979627	1.20529559	0.16401996	2.77439041
1.39175552	-0.80353039	-0.49205988	2.77439032
1.39175552	-0.80353039	0.00000000	3.20943837
1.39175552	-0.80353039	0.49205988	2.77439032
1.39175552	0.00000000	-0.49205988	4.19782925
1.39175552	0.00000000	0.00000000	5.02731513
1.39175552	0.00000000	0.49205988	4.19782925
1.39175552	0.80353039	-0.49205988	2.77439032
1.39175552	0.80353039	0.00000000	3.20943837
1.39175552	0.80353039	0.49205988	2.77439032
1.62371477	-0.40176520	-0.16401996	2.77439025
1.62371477	0.40176520	-0.16401996	2.77439025
