Position data Generated by SPaMD
6	atoms
1	atom types
0.000000		4.311102	xlo xhi
0.000000		2.489016	ylo yhi
0.000000		6.096819	zlo zhi
0.000000		0.000000	0.000000	xy xz yz

Atoms

1	1	0.000000	0.000000	0.000000
2	1	0.718517	1.244508	4.064546
3	1	2.155551	1.244508	0.000000
4	1	2.874068	0.000000	4.064546
5	1	1.437034	0.000000	2.032273
6	1	3.592585	1.244508	2.032273
