Kikuchi_sphere_radius
39.84063745
Kikuchi_line_intensity
228
-1.62371475	-0.40176520	0.16401996	3467.98794176
-1.62371475	0.40176520	0.16401996	3467.98794176
-1.39175550	-0.80353040	-0.49205988	3467.98796507
-1.39175550	-0.80353040	0.00000000	4011.79805845
-1.39175550	-0.80353040	0.49205988	3467.98796507
-1.39175550	0.00000000	-0.49205988	5247.28673883
-1.39175550	0.00000000	0.00000000	6284.14416581
-1.39175550	0.00000000	0.49205988	5247.28673883
-1.39175550	0.80353040	-0.49205988	3467.98796507
-1.39175550	0.80353040	0.00000000	4011.79805845
-1.39175550	0.80353040	0.49205988	3467.98796507
-1.15979625	-1.20529560	-0.16401996	3467.98802319
-1.15979625	-0.40176520	-1.14813972	3467.98789840
-1.15979625	-0.40176520	-0.65607984	6284.14415542
-1.15979625	-0.40176520	-0.16401996	8852.93624806
-1.15979625	-0.40176520	0.32803992	8226.13087426
-1.15979625	-0.40176520	0.82009980	5247.28673091
-1.15979625	0.40176520	-1.14813972	3467.98789840
-1.15979625	0.40176520	-0.65607984	6284.14415542
-1.15979625	0.40176520	-0.16401996	8852.93624806
-1.15979625	0.40176520	0.32803992	8226.13087426
-1.15979625	0.40176520	0.82009980	5247.28673091
-1.15979625	1.20529560	-0.16401996	3467.98802319
-0.92783700	-0.80353040	-0.82009980	5247.28678751
-0.92783700	-0.80353040	-0.32803992	8226.13098560
-0.92783700	-0.80353040	0.16401996	8852.93637237
-0.92783700	-0.80353040	0.65607984	6284.14422967
-0.92783700	-0.80353040	1.14813972	3467.98792894
-0.92783700	0.00000000	-1.31215968	4011.79793623
-0.92783700	0.00000000	-0.82009980	8852.93611839
-0.92783700	0.00000000	-0.32803992	16219.17842818
-0.92783700	0.00000000	0.16401996	17990.95184590
-0.92783700	0.00000000	0.65607984	11229.74974238
-0.92783700	0.00000000	1.14813972	5247.28667188
-0.92783700	0.80353040	-0.82009980	5247.28678751
-0.92783700	0.80353040	-0.32803992	8226.13098560
-0.92783700	0.80353040	0.16401996	8852.93637237
-0.92783700	0.80353040	0.65607984	6284.14422967
-0.92783700	0.80353040	1.14813972	3467.98792894
-0.69587775	-1.20529560	-0.49205988	5247.28690861
-0.69587775	-1.20529560	0.00000000	6284.14438855
-0.69587775	-1.20529560	0.49205988	5247.28690861
-0.69587775	-0.40176520	-1.47617964	3467.98786950
-0.69587775	-0.40176520	-0.98411976	8226.13076887
-0.69587775	-0.40176520	-0.49205988	17990.95188072
-0.69587775	-0.40176520	0.00000000	25636.71099124
-0.69587775	-0.40176520	0.49205988	17990.95188072
-0.69587775	-0.40176520	0.98411976	8226.13076887
-0.69587775	-0.40176520	1.47617964	3467.98786950
-0.69587775	0.40176520	-1.47617964	3467.98786950
-0.69587775	0.40176520	-0.98411976	8226.13076887
-0.69587775	0.40176520	-0.49205988	17990.95188072
-0.69587775	0.40176520	0.00000000	25636.71099124
-0.69587775	0.40176520	0.49205988	17990.95188072
-0.69587775	0.40176520	0.98411976	8226.13076887
-0.69587775	0.40176520	1.47617964	3467.98786950
-0.69587775	1.20529560	-0.49205988	5247.28690861
-0.69587775	1.20529560	0.00000000	6284.14438855
-0.69587775	1.20529560	0.49205988	5247.28690861
-0.46391850	-1.60706080	-0.16401996	3467.98809444
-0.46391850	-0.80353040	-1.14813972	5247.28674733
-0.46391850	-0.80353040	-0.65607984	11229.74997873
-0.46391850	-0.80353040	-0.16401996	17990.95232594
-0.46391850	-0.80353040	0.32803992	16219.17883783
-0.46391850	-0.80353040	0.82009980	8852.93628413
-0.46391850	-0.80353040	1.31215968	4011.79798674
-0.46391850	0.00000000	-1.14813972	8852.93603015
-0.46391850	0.00000000	-0.65607984	25636.71047714
-0.46391850	0.00000000	-0.16401996	65613.67443302
-0.46391850	0.00000000	0.32803992	50748.01321703
-0.46391850	0.00000000	0.82009980	17990.95159033
-0.46391850	0.00000000	1.31215968	6284.14402526
-0.46391850	0.80353040	-1.14813972	5247.28674733
-0.46391850	0.80353040	-0.65607984	11229.74997873
-0.46391850	0.80353040	-0.16401996	17990.95232594
-0.46391850	0.80353040	0.32803992	16219.17883783
-0.46391850	0.80353040	0.82009980	8852.93628413
-0.46391850	0.80353040	1.31215968	4011.79798674
-0.46391850	1.60706080	-0.16401996	3467.98809444
-0.23195925	-1.20529560	-0.82009980	5247.28688183
-0.23195925	-1.20529560	-0.32803992	8226.13117118
-0.23195925	-1.20529560	0.16401996	8852.93657954
-0.23195925	-1.20529560	0.65607984	6284.14435341
-0.23195925	-1.20529560	1.14813972	3467.98797983
-0.23195925	-0.40176520	-1.31215968	6284.14405001
-0.23195925	-0.40176520	-0.82009980	17990.95171034
-0.23195925	-0.40176520	-0.32803992	50748.01394808
-0.23195925	-0.40176520	0.16401996	65613.67561601
-0.23195925	-0.40176520	0.65607984	25636.71068961
-0.23195925	-0.40176520	1.14813972	8852.93607159
-0.23195925	0.40176520	-1.31215968	6284.14405001
-0.23195925	0.40176520	-0.82009980	17990.95171034
-0.23195925	0.40176520	-0.32803992	50748.01394808
-0.23195925	0.40176520	0.16401996	65613.67561601
-0.23195925	0.40176520	0.65607984	25636.71068961
-0.23195925	0.40176520	1.14813972	8852.93607159
-0.23195925	1.20529560	-0.82009980	5247.28688183
-0.23195925	1.20529560	-0.32803992	8226.13117118
-0.23195925	1.20529560	0.16401996	8852.93657954
-0.23195925	1.20529560	0.65607984	6284.14435341
-0.23195925	1.20529560	1.14813972	3467.98797983
0.00000000	-1.60706080	-0.49205988	3467.98808721
0.00000000	-1.60706080	0.00000000	4011.79820997
0.00000000	-1.60706080	0.49205988	3467.98808721
0.00000000	-0.80353040	-1.47617964	3467.98790003
0.00000000	-0.80353040	-0.98411976	8226.13088021
0.00000000	-0.80353040	-0.49205988	17990.95224075
0.00000000	-0.80353040	0.00000000	25636.71162864
0.00000000	-0.80353040	0.49205988	17990.95224075
0.00000000	-0.80353040	0.98411976	8226.13088021
0.00000000	-0.80353040	1.47617964	3467.98790003
0.00000000	0.00000000	-1.47617964	5247.28661831
0.00000000	0.00000000	-0.98411976	16219.17813740
0.00000000	0.00000000	-0.49205988	65613.67359327
0.00000000	0.00000000	0.49205988	65613.67359327
0.00000000	0.00000000	0.98411976	16219.17813740
0.00000000	0.00000000	1.47617964	5247.28661831
0.00000000	0.80353040	-1.47617964	3467.98790003
0.00000000	0.80353040	-0.98411976	8226.13088021
0.00000000	0.80353040	-0.49205988	17990.95224075
0.00000000	0.80353040	0.00000000	25636.71162864
0.00000000	0.80353040	0.49205988	17990.95224075
0.00000000	0.80353040	0.98411976	8226.13088021
0.00000000	0.80353040	1.47617964	3467.98790003
0.00000000	1.60706080	-0.49205988	3467.98808721
0.00000000	1.60706080	0.00000000	4011.79820997
0.00000000	1.60706080	0.49205988	3467.98808721
0.23195925	-1.20529560	-1.14813972	3467.98797983
0.23195925	-1.20529560	-0.65607984	6284.14435341
0.23195925	-1.20529560	-0.16401996	8852.93657954
0.23195925	-1.20529560	0.32803992	8226.13117118
0.23195925	-1.20529560	0.82009980	5247.28688183
0.23195925	-0.40176520	-1.14813972	8852.93607159
0.23195925	-0.40176520	-0.65607984	25636.71068961
0.23195925	-0.40176520	-0.16401996	65613.67561601
0.23195925	-0.40176520	0.32803992	50748.01394808
0.23195925	-0.40176520	0.82009980	17990.95171034
0.23195925	-0.40176520	1.31215968	6284.14405001
0.23195925	0.40176520	-1.14813972	8852.93607159
0.23195925	0.40176520	-0.65607984	25636.71068961
0.23195925	0.40176520	-0.16401996	65613.67561601
0.23195925	0.40176520	0.32803992	50748.01394808
0.23195925	0.40176520	0.82009980	17990.95171034
0.23195925	0.40176520	1.31215968	6284.14405001
0.23195925	1.20529560	-1.14813972	3467.98797983
0.23195925	1.20529560	-0.65607984	6284.14435341
0.23195925	1.20529560	-0.16401996	8852.93657954
0.23195925	1.20529560	0.32803992	8226.13117118
0.23195925	1.20529560	0.82009980	5247.28688183
0.46391850	-1.60706080	0.16401996	3467.98809444
0.46391850	-0.80353040	-1.31215968	4011.79798674
0.46391850	-0.80353040	-0.82009980	8852.93628413
0.46391850	-0.80353040	-0.32803992	16219.17883783
0.46391850	-0.80353040	0.16401996	17990.95232594
0.46391850	-0.80353040	0.65607984	11229.74997873
0.46391850	-0.80353040	1.14813972	5247.28674733
0.46391850	0.00000000	-1.31215968	6284.14402526
0.46391850	0.00000000	-0.82009980	17990.95159033
0.46391850	0.00000000	-0.32803992	50748.01321703
0.46391850	0.00000000	0.16401996	65613.67443302
0.46391850	0.00000000	0.65607984	25636.71047714
0.46391850	0.00000000	1.14813972	8852.93603015
0.46391850	0.80353040	-1.31215968	4011.79798674
0.46391850	0.80353040	-0.82009980	8852.93628413
0.46391850	0.80353040	-0.32803992	16219.17883783
0.46391850	0.80353040	0.16401996	17990.95232594
0.46391850	0.80353040	0.65607984	11229.74997873
0.46391850	0.80353040	1.14813972	5247.28674733
0.46391850	1.60706080	0.16401996	3467.98809444
0.69587775	-1.20529560	-0.49205988	5247.28690861
0.69587775	-1.20529560	0.00000000	6284.14438855
0.69587775	-1.20529560	0.49205988	5247.28690861
0.69587775	-0.40176520	-1.47617964	3467.98786950
0.69587775	-0.40176520	-0.98411976	8226.13076887
0.69587775	-0.40176520	-0.49205988	17990.95188072
0.69587775	-0.40176520	0.00000000	25636.71099124
0.69587775	-0.40176520	0.49205988	17990.95188072
0.69587775	-0.40176520	0.98411976	8226.13076887
0.69587775	-0.40176520	1.47617964	3467.98786950
0.69587775	0.40176520	-1.47617964	3467.98786950
0.69587775	0.40176520	-0.98411976	8226.13076887
0.69587775	0.40176520	-0.49205988	17990.95188072
0.69587775	0.40176520	0.00000000	25636.71099124
0.69587775	0.40176520	0.49205988	17990.95188072
0.69587775	0.40176520	0.98411976	8226.13076887
0.69587775	0.40176520	1.47617964	3467.98786950
0.69587775	1.20529560	-0.49205988	5247.28690861
0.69587775	1.20529560	0.00000000	6284.14438855
0.69587775	1.20529560	0.49205988	5247.28690861
0.92783700	-0.80353040	-1.14813972	3467.98792894
0.92783700	-0.80353040	-0.65607984	6284.14422967
0.92783700	-0.80353040	-0.16401996	8852.93637237
0.92783700	-0.80353040	0.32803992	8226.13098560
0.92783700	-0.80353040	0.82009980	5247.28678751
0.92783700	0.00000000	-1.14813972	5247.28667188
0.92783700	0.00000000	-0.65607984	11229.74974238
0.92783700	0.00000000	-0.16401996	17990.95184590
0.92783700	0.00000000	0.32803992	16219.17842818
0.92783700	0.00000000	0.82009980	8852.93611839
0.92783700	0.00000000	1.31215968	4011.79793623
0.92783700	0.80353040	-1.14813972	3467.98792894
0.92783700	0.80353040	-0.65607984	6284.14422967
0.92783700	0.80353040	-0.16401996	8852.93637237
0.92783700	0.80353040	0.32803992	8226.13098560
0.92783700	0.80353040	0.82009980	5247.28678751
1.15979625	-1.20529560	0.16401996	3467.98802319
1.15979625	-0.40176520	-0.82009980	5247.28673091
1.15979625	-0.40176520	-0.32803992	8226.13087426
1.15979625	-0.40176520	0.16401996	8852.93624806
1.15979625	-0.40176520	0.65607984	6284.14415542
1.15979625	-0.40176520	1.14813972	3467.98789840
1.15979625	0.40176520	-0.82009980	5247.28673091
1.15979625	0.40176520	-0.32803992	8226.13087426
1.15979625	0.40176520	0.16401996	8852.93624806
1.15979625	0.40176520	0.65607984	6284.14415542
1.15979625	0.40176520	1.14813972	3467.98789840
1.15979625	1.20529560	0.16401996	3467.98802319
1.39175550	-0.80353040	-0.49205988	3467.98796507
1.39175550	-0.80353040	0.00000000	4011.79805845
1.39175550	-0.80353040	0.49205988	3467.98796507
1.39175550	0.00000000	-0.49205988	5247.28673883
1.39175550	0.00000000	0.00000000	6284.14416581
1.39175550	0.00000000	0.49205988	5247.28673883
1.39175550	0.80353040	-0.49205988	3467.98796507
1.39175550	0.80353040	0.00000000	4011.79805845
1.39175550	0.80353040	0.49205988	3467.98796507
1.62371475	-0.40176520	-0.16401996	3467.98794176
1.62371475	0.40176520	-0.16401996	3467.98794176
