Position data Generated by SPaMD
7500	atoms
1	atom types
0.000000		21.555510	xlo xhi
0.000000		62.225400	ylo yhi
0.000000		60.968190	zlo zhi
0.000000		0.000000	0.000000	xy xz yz

Atoms

1	1	0.000000	0.000000	0.000000
2	1	0.718517	1.244508	4.064546
3	1	2.155551	1.244508	0.000000
4	1	2.874068	0.000000	4.064546
5	1	1.437034	0.000000	2.032273
6	1	3.592585	1.244508	2.032273
7	1	0.000000	0.000000	6.096819
8	1	0.718517	1.244508	10.161365
9	1	2.155551	1.244508	6.096819
10	1	2.874068	0.000000	10.161365
11	1	1.437034	0.000000	8.129092
12	1	3.592585	1.244508	8.129092
13	1	0.000000	0.000000	12.193638
14	1	0.718517	1.244508	16.258184
15	1	2.155551	1.244508	12.193638
16	1	2.874068	0.000000	16.258184
17	1	1.437034	0.000000	14.225911
18	1	3.592585	1.244508	14.225911
19	1	0.000000	0.000000	18.290457
20	1	0.718517	1.244508	22.355003
21	1	2.155551	1.244508	18.290457
22	1	2.874068	0.000000	22.355003
23	1	1.437034	0.000000	20.322730
24	1	3.592585	1.244508	20.322730
25	1	0.000000	0.000000	24.387276
26	1	0.718517	1.244508	28.451822
27	1	2.155551	1.244508	24.387276
28	1	2.874068	0.000000	28.451822
29	1	1.437034	0.000000	26.419549
30	1	3.592585	1.244508	26.419549
31	1	0.000000	0.000000	30.484095
32	1	0.718517	1.244508	34.548641
33	1	2.155551	1.244508	30.484095
34	1	2.874068	0.000000	34.548641
35	1	1.437034	0.000000	32.516368
36	1	3.592585	1.244508	32.516368
37	1	0.000000	0.000000	36.580914
38	1	0.718517	1.244508	40.645460
39	1	2.155551	1.244508	36.580914
40	1	2.874068	0.000000	40.645460
41	1	1.437034	0.000000	38.613187
42	1	3.592585	1.244508	38.613187
43	1	0.000000	0.000000	42.677733
44	1	0.718517	1.244508	46.742279
45	1	2.155551	1.244508	42.677733
46	1	2.874068	0.000000	46.742279
47	1	1.437034	0.000000	44.710006
48	1	3.592585	1.244508	44.710006
49	1	0.000000	0.000000	48.774552
50	1	0.718517	1.244508	52.839098
51	1	2.155551	1.244508	48.774552
52	1	2.874068	0.000000	52.839098
53	1	1.437034	0.000000	50.806825
54	1	3.592585	1.244508	50.806825
55	1	0.000000	0.000000	54.871371
56	1	0.718517	1.244508	58.935917
57	1	2.155551	1.244508	54.871371
58	1	2.874068	0.000000	58.935917
59	1	1.437034	0.000000	56.903644
60	1	3.592585	1.244508	56.903644
61	1	0.000000	2.489016	0.000000
62	1	0.718517	3.733524	4.064546
63	1	2.155551	3.733524	0.000000
64	1	2.874068	2.489016	4.064546
65	1	1.437034	2.489016	2.032273
66	1	3.592585	3.733524	2.032273
67	1	0.000000	2.489016	6.096819
68	1	0.718517	3.733524	10.161365
69	1	2.155551	3.733524	6.096819
70	1	2.874068	2.489016	10.161365
71	1	1.437034	2.489016	8.129092
72	1	3.592585	3.733524	8.129092
73	1	0.000000	2.489016	12.193638
74	1	0.718517	3.733524	16.258184
75	1	2.155551	3.733524	12.193638
76	1	2.874068	2.489016	16.258184
77	1	1.437034	2.489016	14.225911
78	1	3.592585	3.733524	14.225911
79	1	0.000000	2.489016	18.290457
80	1	0.718517	3.733524	22.355003
81	1	2.155551	3.733524	18.290457
82	1	2.874068	2.489016	22.355003
83	1	1.437034	2.489016	20.322730
84	1	3.592585	3.733524	20.322730
85	1	0.000000	2.489016	24.387276
86	1	0.718517	3.733524	28.451822
87	1	2.155551	3.733524	24.387276
88	1	2.874068	2.489016	28.451822
89	1	1.437034	2.489016	26.419549
90	1	3.592585	3.733524	26.419549
91	1	0.000000	2.489016	30.484095
92	1	0.718517	3.733524	34.548641
93	1	2.155551	3.733524	30.484095
94	1	2.874068	2.489016	34.548641
95	1	1.437034	2.489016	32.516368
96	1	3.592585	3.733524	32.516368
97	1	0.000000	2.489016	36.580914
98	1	0.718517	3.733524	40.645460
99	1	2.155551	3.733524	36.580914
100	1	2.874068	2.489016	40.645460
101	1	1.437034	2.489016	38.613187
102	1	3.592585	3.733524	38.613187
103	1	0.000000	2.489016	42.677733
104	1	0.718517	3.733524	46.742279
105	1	2.155551	3.733524	42.677733
106	1	2.874068	2.489016	46.742279
107	1	1.437034	2.489016	44.710006
108	1	3.592585	3.733524	44.710006
109	1	0.000000	2.489016	48.774552
110	1	0.718517	3.733524	52.839098
111	1	2.155551	3.733524	48.774552
112	1	2.874068	2.489016	52.839098
113	1	1.437034	2.489016	50.806825
114	1	3.592585	3.733524	50.806825
115	1	0.000000	2.489016	54.871371
116	1	0.718517	3.733524	58.935917
117	1	2.155551	3.733524	54.871371
118	1	2.874068	2.489016	58.935917
119	1	1.437034	2.489016	56.903644
120	1	3.592585	3.733524	56.903644
121	1	0.000000	4.978032	0.000000
122	1	0.718517	6.222540	4.064546
123	1	2.155551	6.222540	0.000000
124	1	2.874068	4.978032	4.064546
125	1	1.437034	4.978032	2.032273
126	1	3.592585	6.222540	2.032273
127	1	0.000000	4.978032	6.096819
128	1	0.718517	6.222540	10.161365
129	1	2.155551	6.222540	6.096819
130	1	2.874068	4.978032	10.161365
131	1	1.437034	4.978032	8.129092
132	1	3.592585	6.222540	8.129092
133	1	0.000000	4.978032	12.193638
134	1	0.718517	6.222540	16.258184
135	1	2.155551	6.222540	12.193638
136	1	2.874068	4.978032	16.258184
137	1	1.437034	4.978032	14.225911
138	1	3.592585	6.222540	14.225911
139	1	0.000000	4.978032	18.290457
140	1	0.718517	6.222540	22.355003
141	1	2.155551	6.222540	18.290457
142	1	2.874068	4.978032	22.355003
143	1	1.437034	4.978032	20.322730
144	1	3.592585	6.222540	20.322730
145	1	0.000000	4.978032	24.387276
146	1	0.718517	6.222540	28.451822
147	1	2.155551	6.222540	24.387276
148	1	2.874068	4.978032	28.451822
149	1	1.437034	4.978032	26.419549
150	1	3.592585	6.222540	26.419549
151	1	0.000000	4.978032	30.484095
152	1	0.718517	6.222540	34.548641
153	1	2.155551	6.222540	30.484095
154	1	2.874068	4.978032	34.548641
155	1	1.437034	4.978032	32.516368
156	1	3.592585	6.222540	32.516368
157	1	0.000000	4.978032	36.580914
158	1	0.718517	6.222540	40.645460
159	1	2.155551	6.222540	36.580914
160	1	2.874068	4.978032	40.645460
161	1	1.437034	4.978032	38.613187
162	1	3.592585	6.222540	38.613187
163	1	0.000000	4.978032	42.677733
164	1	0.718517	6.222540	46.742279
165	1	2.155551	6.222540	42.677733
166	1	2.874068	4.978032	46.742279
167	1	1.437034	4.978032	44.710006
168	1	3.592585	6.222540	44.710006
169	1	0.000000	4.978032	48.774552
170	1	0.718517	6.222540	52.839098
171	1	2.155551	6.222540	48.774552
172	1	2.874068	4.978032	52.839098
173	1	1.437034	4.978032	50.806825
174	1	3.592585	6.222540	50.806825
175	1	0.000000	4.978032	54.871371
176	1	0.718517	6.222540	58.935917
177	1	2.155551	6.222540	54.871371
178	1	2.874068	4.978032	58.935917
179	1	1.437034	4.978032	56.903644
180	1	3.592585	6.222540	56.903644
181	1	0.000000	7.467048	0.000000
182	1	0.718517	8.711556	4.064546
183	1	2.155551	8.711556	0.000000
184	1	2.874068	7.467048	4.064546
185	1	1.437034	7.467048	2.032273
186	1	3.592585	8.711556	2.032273
187	1	0.000000	7.467048	6.096819
188	1	0.718517	8.711556	10.161365
189	1	2.155551	8.711556	6.096819
190	1	2.874068	7.467048	10.161365
191	1	1.437034	7.467048	8.129092
192	1	3.592585	8.711556	8.129092
193	1	0.000000	7.467048	12.193638
194	1	0.718517	8.711556	16.258184
195	1	2.155551	8.711556	12.193638
196	1	2.874068	7.467048	16.258184
197	1	1.437034	7.467048	14.225911
198	1	3.592585	8.711556	14.225911
199	1	0.000000	7.467048	18.290457
200	1	0.718517	8.711556	22.355003
201	1	2.155551	8.711556	18.290457
202	1	2.874068	7.467048	22.355003
203	1	1.437034	7.467048	20.322730
204	1	3.592585	8.711556	20.322730
205	1	0.000000	7.467048	24.387276
206	1	0.718517	8.711556	28.451822
207	1	2.155551	8.711556	24.387276
208	1	2.874068	7.467048	28.451822
209	1	1.437034	7.467048	26.419549
210	1	3.592585	8.711556	26.419549
211	1	0.000000	7.467048	30.484095
212	1	0.718517	8.711556	34.548641
213	1	2.155551	8.711556	30.484095
214	1	2.874068	7.467048	34.548641
215	1	1.437034	7.467048	32.516368
216	1	3.592585	8.711556	32.516368
217	1	0.000000	7.467048	36.580914
218	1	0.718517	8.711556	40.645460
219	1	2.155551	8.711556	36.580914
220	1	2.874068	7.467048	40.645460
221	1	1.437034	7.467048	38.613187
222	1	3.592585	8.711556	38.613187
223	1	0.000000	7.467048	42.677733
224	1	0.718517	8.711556	46.742279
225	1	2.155551	8.711556	42.677733
226	1	2.874068	7.467048	46.742279
227	1	1.437034	7.467048	44.710006
228	1	3.592585	8.711556	44.710006
229	1	0.000000	7.467048	48.774552
230	1	0.718517	8.711556	52.839098
231	1	2.155551	8.711556	48.774552
232	1	2.874068	7.467048	52.839098
233	1	1.437034	7.467048	50.806825
234	1	3.592585	8.711556	50.806825
235	1	0.000000	7.467048	54.871371
236	1	0.718517	8.711556	58.935917
237	1	2.155551	8.711556	54.871371
238	1	2.874068	7.467048	58.935917
239	1	1.437034	7.467048	56.903644
240	1	3.592585	8.711556	56.903644
241	1	0.000000	9.956064	0.000000
242	1	0.718517	11.200572	4.064546
243	1	2.155551	11.200572	0.000000
244	1	2.874068	9.956064	4.064546
245	1	1.437034	9.956064	2.032273
246	1	3.592585	11.200572	2.032273
247	1	0.000000	9.956064	6.096819
248	1	0.718517	11.200572	10.161365
249	1	2.155551	11.200572	6.096819
250	1	2.874068	9.956064	10.161365
251	1	1.437034	9.956064	8.129092
252	1	3.592585	11.200572	8.129092
253	1	0.000000	9.956064	12.193638
254	1	0.718517	11.200572	16.258184
255	1	2.155551	11.200572	12.193638
256	1	2.874068	9.956064	16.258184
257	1	1.437034	9.956064	14.225911
258	1	3.592585	11.200572	14.225911
259	1	0.000000	9.956064	18.290457
260	1	0.718517	11.200572	22.355003
261	1	2.155551	11.200572	18.290457
262	1	2.874068	9.956064	22.355003
263	1	1.437034	9.956064	20.322730
264	1	3.592585	11.200572	20.322730
265	1	0.000000	9.956064	24.387276
266	1	0.718517	11.200572	28.451822
267	1	2.155551	11.200572	24.387276
268	1	2.874068	9.956064	28.451822
269	1	1.437034	9.956064	26.419549
270	1	3.592585	11.200572	26.419549
271	1	0.000000	9.956064	30.484095
272	1	0.718517	11.200572	34.548641
273	1	2.155551	11.200572	30.484095
274	1	2.874068	9.956064	34.548641
275	1	1.437034	9.956064	32.516368
276	1	3.592585	11.200572	32.516368
277	1	0.000000	9.956064	36.580914
278	1	0.718517	11.200572	40.645460
279	1	2.155551	11.200572	36.580914
280	1	2.874068	9.956064	40.645460
281	1	1.437034	9.956064	38.613187
282	1	3.592585	11.200572	38.613187
283	1	0.000000	9.956064	42.677733
284	1	0.718517	11.200572	46.742279
285	1	2.155551	11.200572	42.677733
286	1	2.874068	9.956064	46.742279
287	1	1.437034	9.956064	44.710006
288	1	3.592585	11.200572	44.710006
289	1	0.000000	9.956064	48.774552
290	1	0.718517	11.200572	52.839098
291	1	2.155551	11.200572	48.774552
292	1	2.874068	9.956064	52.839098
293	1	1.437034	9.956064	50.806825
294	1	3.592585	11.200572	50.806825
295	1	0.000000	9.956064	54.871371
296	1	0.718517	11.200572	58.935917
297	1	2.155551	11.200572	54.871371
298	1	2.874068	9.956064	58.935917
299	1	1.437034	9.956064	56.903644
300	1	3.592585	11.200572	56.903644
301	1	0.000000	12.445080	0.000000
302	1	0.718517	13.689588	4.064546
303	1	2.155551	13.689588	0.000000
304	1	2.874068	12.445080	4.064546
305	1	1.437034	12.445080	2.032273
306	1	3.592585	13.689588	2.032273
307	1	0.000000	12.445080	6.096819
308	1	0.718517	13.689588	10.161365
309	1	2.155551	13.689588	6.096819
310	1	2.874068	12.445080	10.161365
311	1	1.437034	12.445080	8.129092
312	1	3.592585	13.689588	8.129092
313	1	0.000000	12.445080	12.193638
314	1	0.718517	13.689588	16.258184
315	1	2.155551	13.689588	12.193638
316	1	2.874068	12.445080	16.258184
317	1	1.437034	12.445080	14.225911
318	1	3.592585	13.689588	14.225911
319	1	0.000000	12.445080	18.290457
320	1	0.718517	13.689588	22.355003
321	1	2.155551	13.689588	18.290457
322	1	2.874068	12.445080	22.355003
323	1	1.437034	12.445080	20.322730
324	1	3.592585	13.689588	20.322730
325	1	0.000000	12.445080	24.387276
326	1	0.718517	13.689588	28.451822
327	1	2.155551	13.689588	24.387276
328	1	2.874068	12.445080	28.451822
329	1	1.437034	12.445080	26.419549
330	1	3.592585	13.689588	26.419549
331	1	0.000000	12.445080	30.484095
332	1	0.718517	13.689588	34.548641
333	1	2.155551	13.689588	30.484095
334	1	2.874068	12.445080	34.548641
335	1	1.437034	12.445080	32.516368
336	1	3.592585	13.689588	32.516368
337	1	0.000000	12.445080	36.580914
338	1	0.718517	13.689588	40.645460
339	1	2.155551	13.689588	36.580914
340	1	2.874068	12.445080	40.645460
341	1	1.437034	12.445080	38.613187
342	1	3.592585	13.689588	38.613187
343	1	0.000000	12.445080	42.677733
344	1	0.718517	13.689588	46.742279
345	1	2.155551	13.689588	42.677733
346	1	2.874068	12.445080	46.742279
347	1	1.437034	12.445080	44.710006
348	1	3.592585	13.689588	44.710006
349	1	0.000000	12.445080	48.774552
350	1	0.718517	13.689588	52.839098
351	1	2.155551	13.689588	48.774552
352	1	2.874068	12.445080	52.839098
353	1	1.437034	12.445080	50.806825
354	1	3.592585	13.689588	50.806825
355	1	0.000000	12.445080	54.871371
356	1	0.718517	13.689588	58.935917
357	1	2.155551	13.689588	54.871371
358	1	2.874068	12.445080	58.935917
359	1	1.437034	12.445080	56.903644
360	1	3.592585	13.689588	56.903644
361	1	0.000000	14.934096	0.000000
362	1	0.718517	16.178604	4.064546
363	1	2.155551	16.178604	0.000000
364	1	2.874068	14.934096	4.064546
365	1	1.437034	14.934096	2.032273
366	1	3.592585	16.178604	2.032273
367	1	0.000000	14.934096	6.096819
368	1	0.718517	16.178604	10.161365
369	1	2.155551	16.178604	6.096819
370	1	2.874068	14.934096	10.161365
371	1	1.437034	14.934096	8.129092
372	1	3.592585	16.178604	8.129092
373	1	0.000000	14.934096	12.193638
374	1	0.718517	16.178604	16.258184
375	1	2.155551	16.178604	12.193638
376	1	2.874068	14.934096	16.258184
377	1	1.437034	14.934096	14.225911
378	1	3.592585	16.178604	14.225911
379	1	0.000000	14.934096	18.290457
380	1	0.718517	16.178604	22.355003
381	1	2.155551	16.178604	18.290457
382	1	2.874068	14.934096	22.355003
383	1	1.437034	14.934096	20.322730
384	1	3.592585	16.178604	20.322730
385	1	0.000000	14.934096	24.387276
386	1	0.718517	16.178604	28.451822
387	1	2.155551	16.178604	24.387276
388	1	2.874068	14.934096	28.451822
389	1	1.437034	14.934096	26.419549
390	1	3.592585	16.178604	26.419549
391	1	0.000000	14.934096	30.484095
392	1	0.718517	16.178604	34.548641
393	1	2.155551	16.178604	30.484095
394	1	2.874068	14.934096	34.548641
395	1	1.437034	14.934096	32.516368
396	1	3.592585	16.178604	32.516368
397	1	0.000000	14.934096	36.580914
398	1	0.718517	16.178604	40.645460
399	1	2.155551	16.178604	36.580914
400	1	2.874068	14.934096	40.645460
401	1	1.437034	14.934096	38.613187
402	1	3.592585	16.178604	38.613187
403	1	0.000000	14.934096	42.677733
404	1	0.718517	16.178604	46.742279
405	1	2.155551	16.178604	42.677733
406	1	2.874068	14.934096	46.742279
407	1	1.437034	14.934096	44.710006
408	1	3.592585	16.178604	44.710006
409	1	0.000000	14.934096	48.774552
410	1	0.718517	16.178604	52.839098
411	1	2.155551	16.178604	48.774552
412	1	2.874068	14.934096	52.839098
413	1	1.437034	14.934096	50.806825
414	1	3.592585	16.178604	50.806825
415	1	0.000000	14.934096	54.871371
416	1	0.718517	16.178604	58.935917
417	1	2.155551	16.178604	54.871371
418	1	2.874068	14.934096	58.935917
419	1	1.437034	14.934096	56.903644
420	1	3.592585	16.178604	56.903644
421	1	0.000000	17.423112	0.000000
422	1	0.718517	18.667620	4.064546
423	1	2.155551	18.667620	0.000000
424	1	2.874068	17.423112	4.064546
425	1	1.437034	17.423112	2.032273
426	1	3.592585	18.667620	2.032273
427	1	0.000000	17.423112	6.096819
428	1	0.718517	18.667620	10.161365
429	1	2.155551	18.667620	6.096819
430	1	2.874068	17.423112	10.161365
431	1	1.437034	17.423112	8.129092
432	1	3.592585	18.667620	8.129092
433	1	0.000000	17.423112	12.193638
434	1	0.718517	18.667620	16.258184
435	1	2.155551	18.667620	12.193638
436	1	2.874068	17.423112	16.258184
437	1	1.437034	17.423112	14.225911
438	1	3.592585	18.667620	14.225911
439	1	0.000000	17.423112	18.290457
440	1	0.718517	18.667620	22.355003
441	1	2.155551	18.667620	18.290457
442	1	2.874068	17.423112	22.355003
443	1	1.437034	17.423112	20.322730
444	1	3.592585	18.667620	20.322730
445	1	0.000000	17.423112	24.387276
446	1	0.718517	18.667620	28.451822
447	1	2.155551	18.667620	24.387276
448	1	2.874068	17.423112	28.451822
449	1	1.437034	17.423112	26.419549
450	1	3.592585	18.667620	26.419549
451	1	0.000000	17.423112	30.484095
452	1	0.718517	18.667620	34.548641
453	1	2.155551	18.667620	30.484095
454	1	2.874068	17.423112	34.548641
455	1	1.437034	17.423112	32.516368
456	1	3.592585	18.667620	32.516368
457	1	0.000000	17.423112	36.580914
458	1	0.718517	18.667620	40.645460
459	1	2.155551	18.667620	36.580914
460	1	2.874068	17.423112	40.645460
461	1	1.437034	17.423112	38.613187
462	1	3.592585	18.667620	38.613187
463	1	0.000000	17.423112	42.677733
464	1	0.718517	18.667620	46.742279
465	1	2.155551	18.667620	42.677733
466	1	2.874068	17.423112	46.742279
467	1	1.437034	17.423112	44.710006
468	1	3.592585	18.667620	44.710006
469	1	0.000000	17.423112	48.774552
470	1	0.718517	18.667620	52.839098
471	1	2.155551	18.667620	48.774552
472	1	2.874068	17.423112	52.839098
473	1	1.437034	17.423112	50.806825
474	1	3.592585	18.667620	50.806825
475	1	0.000000	17.423112	54.871371
476	1	0.718517	18.667620	58.935917
477	1	2.155551	18.667620	54.871371
478	1	2.874068	17.423112	58.935917
479	1	1.437034	17.423112	56.903644
480	1	3.592585	18.667620	56.903644
481	1	0.000000	19.912128	0.000000
482	1	0.718517	21.156636	4.064546
483	1	2.155551	21.156636	0.000000
484	1	2.874068	19.912128	4.064546
485	1	1.437034	19.912128	2.032273
486	1	3.592585	21.156636	2.032273
487	1	0.000000	19.912128	6.096819
488	1	0.718517	21.156636	10.161365
489	1	2.155551	21.156636	6.096819
490	1	2.874068	19.912128	10.161365
491	1	1.437034	19.912128	8.129092
492	1	3.592585	21.156636	8.129092
493	1	0.000000	19.912128	12.193638
494	1	0.718517	21.156636	16.258184
495	1	2.155551	21.156636	12.193638
496	1	2.874068	19.912128	16.258184
497	1	1.437034	19.912128	14.225911
498	1	3.592585	21.156636	14.225911
499	1	0.000000	19.912128	18.290457
500	1	0.718517	21.156636	22.355003
501	1	2.155551	21.156636	18.290457
502	1	2.874068	19.912128	22.355003
503	1	1.437034	19.912128	20.322730
504	1	3.592585	21.156636	20.322730
505	1	0.000000	19.912128	24.387276
506	1	0.718517	21.156636	28.451822
507	1	2.155551	21.156636	24.387276
508	1	2.874068	19.912128	28.451822
509	1	1.437034	19.912128	26.419549
510	1	3.592585	21.156636	26.419549
511	1	0.000000	19.912128	30.484095
512	1	0.718517	21.156636	34.548641
513	1	2.155551	21.156636	30.484095
514	1	2.874068	19.912128	34.548641
515	1	1.437034	19.912128	32.516368
516	1	3.592585	21.156636	32.516368
517	1	0.000000	19.912128	36.580914
518	1	0.718517	21.156636	40.645460
519	1	2.155551	21.156636	36.580914
520	1	2.874068	19.912128	40.645460
521	1	1.437034	19.912128	38.613187
522	1	3.592585	21.156636	38.613187
523	1	0.000000	19.912128	42.677733
524	1	0.718517	21.156636	46.742279
525	1	2.155551	21.156636	42.677733
526	1	2.874068	19.912128	46.742279
527	1	1.437034	19.912128	44.710006
528	1	3.592585	21.156636	44.710006
529	1	0.000000	19.912128	48.774552
530	1	0.718517	21.156636	52.839098
531	1	2.155551	21.156636	48.774552
532	1	2.874068	19.912128	52.839098
533	1	1.437034	19.912128	50.806825
534	1	3.592585	21.156636	50.806825
535	1	0.000000	19.912128	54.871371
536	1	0.718517	21.156636	58.935917
537	1	2.155551	21.156636	54.871371
538	1	2.874068	19.912128	58.935917
539	1	1.437034	19.912128	56.903644
540	1	3.592585	21.156636	56.903644
541	1	0.000000	22.401144	0.000000
542	1	0.718517	23.645652	4.064546
543	1	2.155551	23.645652	0.000000
544	1	2.874068	22.401144	4.064546
545	1	1.437034	22.401144	2.032273
546	1	3.592585	23.645652	2.032273
547	1	0.000000	22.401144	6.096819
548	1	0.718517	23.645652	10.161365
549	1	2.155551	23.645652	6.096819
550	1	2.874068	22.401144	10.161365
551	1	1.437034	22.401144	8.129092
552	1	3.592585	23.645652	8.129092
553	1	0.000000	22.401144	12.193638
554	1	0.718517	23.645652	16.258184
555	1	2.155551	23.645652	12.193638
556	1	2.874068	22.401144	16.258184
557	1	1.437034	22.401144	14.225911
558	1	3.592585	23.645652	14.225911
559	1	0.000000	22.401144	18.290457
560	1	0.718517	23.645652	22.355003
561	1	2.155551	23.645652	18.290457
562	1	2.874068	22.401144	22.355003
563	1	1.437034	22.401144	20.322730
564	1	3.592585	23.645652	20.322730
565	1	0.000000	22.401144	24.387276
566	1	0.718517	23.645652	28.451822
567	1	2.155551	23.645652	24.387276
568	1	2.874068	22.401144	28.451822
569	1	1.437034	22.401144	26.419549
570	1	3.592585	23.645652	26.419549
571	1	0.000000	22.401144	30.484095
572	1	0.718517	23.645652	34.548641
573	1	2.155551	23.645652	30.484095
574	1	2.874068	22.401144	34.548641
575	1	1.437034	22.401144	32.516368
576	1	3.592585	23.645652	32.516368
577	1	0.000000	22.401144	36.580914
578	1	0.718517	23.645652	40.645460
579	1	2.155551	23.645652	36.580914
580	1	2.874068	22.401144	40.645460
581	1	1.437034	22.401144	38.613187
582	1	3.592585	23.645652	38.613187
583	1	0.000000	22.401144	42.677733
584	1	0.718517	23.645652	46.742279
585	1	2.155551	23.645652	42.677733
586	1	2.874068	22.401144	46.742279
587	1	1.437034	22.401144	44.710006
588	1	3.592585	23.645652	44.710006
589	1	0.000000	22.401144	48.774552
590	1	0.718517	23.645652	52.839098
591	1	2.155551	23.645652	48.774552
592	1	2.874068	22.401144	52.839098
593	1	1.437034	22.401144	50.806825
594	1	3.592585	23.645652	50.806825
595	1	0.000000	22.401144	54.871371
596	1	0.718517	23.645652	58.935917
597	1	2.155551	23.645652	54.871371
598	1	2.874068	22.401144	58.935917
599	1	1.437034	22.401144	56.903644
600	1	3.592585	23.645652	56.903644
601	1	0.000000	24.890160	0.000000
602	1	0.718517	26.134668	4.064546
603	1	2.155551	26.134668	0.000000
604	1	2.874068	24.890160	4.064546
605	1	1.437034	24.890160	2.032273
606	1	3.592585	26.134668	2.032273
607	1	0.000000	24.890160	6.096819
608	1	0.718517	26.134668	10.161365
609	1	2.155551	26.134668	6.096819
610	1	2.874068	24.890160	10.161365
611	1	1.437034	24.890160	8.129092
612	1	3.592585	26.134668	8.129092
613	1	0.000000	24.890160	12.193638
614	1	0.718517	26.134668	16.258184
615	1	2.155551	26.134668	12.193638
616	1	2.874068	24.890160	16.258184
617	1	1.437034	24.890160	14.225911
618	1	3.592585	26.134668	14.225911
619	1	0.000000	24.890160	18.290457
620	1	0.718517	26.134668	22.355003
621	1	2.155551	26.134668	18.290457
622	1	2.874068	24.890160	22.355003
623	1	1.437034	24.890160	20.322730
624	1	3.592585	26.134668	20.322730
625	1	0.000000	24.890160	24.387276
626	1	0.718517	26.134668	28.451822
627	1	2.155551	26.134668	24.387276
628	1	2.874068	24.890160	28.451822
629	1	1.437034	24.890160	26.419549
630	1	3.592585	26.134668	26.419549
631	1	0.000000	24.890160	30.484095
632	1	0.718517	26.134668	34.548641
633	1	2.155551	26.134668	30.484095
634	1	2.874068	24.890160	34.548641
635	1	1.437034	24.890160	32.516368
636	1	3.592585	26.134668	32.516368
637	1	0.000000	24.890160	36.580914
638	1	0.718517	26.134668	40.645460
639	1	2.155551	26.134668	36.580914
640	1	2.874068	24.890160	40.645460
641	1	1.437034	24.890160	38.613187
642	1	3.592585	26.134668	38.613187
643	1	0.000000	24.890160	42.677733
644	1	0.718517	26.134668	46.742279
645	1	2.155551	26.134668	42.677733
646	1	2.874068	24.890160	46.742279
647	1	1.437034	24.890160	44.710006
648	1	3.592585	26.134668	44.710006
649	1	0.000000	24.890160	48.774552
650	1	0.718517	26.134668	52.839098
651	1	2.155551	26.134668	48.774552
652	1	2.874068	24.890160	52.839098
653	1	1.437034	24.890160	50.806825
654	1	3.592585	26.134668	50.806825
655	1	0.000000	24.890160	54.871371
656	1	0.718517	26.134668	58.935917
657	1	2.155551	26.134668	54.871371
658	1	2.874068	24.890160	58.935917
659	1	1.437034	24.890160	56.903644
660	1	3.592585	26.134668	56.903644
661	1	0.000000	27.379176	0.000000
662	1	0.718517	28.623684	4.064546
663	1	2.155551	28.623684	0.000000
664	1	2.874068	27.379176	4.064546
665	1	1.437034	27.379176	2.032273
666	1	3.592585	28.623684	2.032273
667	1	0.000000	27.379176	6.096819
668	1	0.718517	28.623684	10.161365
669	1	2.155551	28.623684	6.096819
670	1	2.874068	27.379176	10.161365
671	1	1.437034	27.379176	8.129092
672	1	3.592585	28.623684	8.129092
673	1	0.000000	27.379176	12.193638
674	1	0.718517	28.623684	16.258184
675	1	2.155551	28.623684	12.193638
676	1	2.874068	27.379176	16.258184
677	1	1.437034	27.379176	14.225911
678	1	3.592585	28.623684	14.225911
679	1	0.000000	27.379176	18.290457
680	1	0.718517	28.623684	22.355003
681	1	2.155551	28.623684	18.290457
682	1	2.874068	27.379176	22.355003
683	1	1.437034	27.379176	20.322730
684	1	3.592585	28.623684	20.322730
685	1	0.000000	27.379176	24.387276
686	1	0.718517	28.623684	28.451822
687	1	2.155551	28.623684	24.387276
688	1	2.874068	27.379176	28.451822
689	1	1.437034	27.379176	26.419549
690	1	3.592585	28.623684	26.419549
691	1	0.000000	27.379176	30.484095
692	1	0.718517	28.623684	34.548641
693	1	2.155551	28.623684	30.484095
694	1	2.874068	27.379176	34.548641
695	1	1.437034	27.379176	32.516368
696	1	3.592585	28.623684	32.516368
697	1	0.000000	27.379176	36.580914
698	1	0.718517	28.623684	40.645460
699	1	2.155551	28.623684	36.580914
700	1	2.874068	27.379176	40.645460
701	1	1.437034	27.379176	38.613187
702	1	3.592585	28.623684	38.613187
703	1	0.000000	27.379176	42.677733
704	1	0.718517	28.623684	46.742279
705	1	2.155551	28.623684	42.677733
706	1	2.874068	27.379176	46.742279
707	1	1.437034	27.379176	44.710006
708	1	3.592585	28.623684	44.710006
709	1	0.000000	27.379176	48.774552
710	1	0.718517	28.623684	52.839098
711	1	2.155551	28.623684	48.774552
712	1	2.874068	27.379176	52.839098
713	1	1.437034	27.379176	50.806825
714	1	3.592585	28.623684	50.806825
715	1	0.000000	27.379176	54.871371
716	1	0.718517	28.623684	58.935917
717	1	2.155551	28.623684	54.871371
718	1	2.874068	27.379176	58.935917
719	1	1.437034	27.379176	56.903644
720	1	3.592585	28.623684	56.903644
721	1	0.000000	29.868192	0.000000
722	1	0.718517	31.112700	4.064546
723	1	2.155551	31.112700	0.000000
724	1	2.874068	29.868192	4.064546
725	1	1.437034	29.868192	2.032273
726	1	3.592585	31.112700	2.032273
727	1	0.000000	29.868192	6.096819
728	1	0.718517	31.112700	10.161365
729	1	2.155551	31.112700	6.096819
730	1	2.874068	29.868192	10.161365
731	1	1.437034	29.868192	8.129092
732	1	3.592585	31.112700	8.129092
733	1	0.000000	29.868192	12.193638
734	1	0.718517	31.112700	16.258184
735	1	2.155551	31.112700	12.193638
736	1	2.874068	29.868192	16.258184
737	1	1.437034	29.868192	14.225911
738	1	3.592585	31.112700	14.225911
739	1	0.000000	29.868192	18.290457
740	1	0.718517	31.112700	22.355003
741	1	2.155551	31.112700	18.290457
742	1	2.874068	29.868192	22.355003
743	1	1.437034	29.868192	20.322730
744	1	3.592585	31.112700	20.322730
745	1	0.000000	29.868192	24.387276
746	1	0.718517	31.112700	28.451822
747	1	2.155551	31.112700	24.387276
748	1	2.874068	29.868192	28.451822
749	1	1.437034	29.868192	26.419549
750	1	3.592585	31.112700	26.419549
751	1	0.000000	29.868192	30.484095
752	1	0.718517	31.112700	34.548641
753	1	2.155551	31.112700	30.484095
754	1	2.874068	29.868192	34.548641
755	1	1.437034	29.868192	32.516368
756	1	3.592585	31.112700	32.516368
757	1	0.000000	29.868192	36.580914
758	1	0.718517	31.112700	40.645460
759	1	2.155551	31.112700	36.580914
760	1	2.874068	29.868192	40.645460
761	1	1.437034	29.868192	38.613187
762	1	3.592585	31.112700	38.613187
763	1	0.000000	29.868192	42.677733
764	1	0.718517	31.112700	46.742279
765	1	2.155551	31.112700	42.677733
766	1	2.874068	29.868192	46.742279
767	1	1.437034	29.868192	44.710006
768	1	3.592585	31.112700	44.710006
769	1	0.000000	29.868192	48.774552
770	1	0.718517	31.112700	52.839098
771	1	2.155551	31.112700	48.774552
772	1	2.874068	29.868192	52.839098
773	1	1.437034	29.868192	50.806825
774	1	3.592585	31.112700	50.806825
775	1	0.000000	29.868192	54.871371
776	1	0.718517	31.112700	58.935917
777	1	2.155551	31.112700	54.871371
778	1	2.874068	29.868192	58.935917
779	1	1.437034	29.868192	56.903644
780	1	3.592585	31.112700	56.903644
781	1	0.000000	32.357208	0.000000
782	1	0.718517	33.601716	4.064546
783	1	2.155551	33.601716	0.000000
784	1	2.874068	32.357208	4.064546
785	1	1.437034	32.357208	2.032273
786	1	3.592585	33.601716	2.032273
787	1	0.000000	32.357208	6.096819
788	1	0.718517	33.601716	10.161365
789	1	2.155551	33.601716	6.096819
790	1	2.874068	32.357208	10.161365
791	1	1.437034	32.357208	8.129092
792	1	3.592585	33.601716	8.129092
793	1	0.000000	32.357208	12.193638
794	1	0.718517	33.601716	16.258184
795	1	2.155551	33.601716	12.193638
796	1	2.874068	32.357208	16.258184
797	1	1.437034	32.357208	14.225911
798	1	3.592585	33.601716	14.225911
799	1	0.000000	32.357208	18.290457
800	1	0.718517	33.601716	22.355003
801	1	2.155551	33.601716	18.290457
802	1	2.874068	32.357208	22.355003
803	1	1.437034	32.357208	20.322730
804	1	3.592585	33.601716	20.322730
805	1	0.000000	32.357208	24.387276
806	1	0.718517	33.601716	28.451822
807	1	2.155551	33.601716	24.387276
808	1	2.874068	32.357208	28.451822
809	1	1.437034	32.357208	26.419549
810	1	3.592585	33.601716	26.419549
811	1	0.000000	32.357208	30.484095
812	1	0.718517	33.601716	34.548641
813	1	2.155551	33.601716	30.484095
814	1	2.874068	32.357208	34.548641
815	1	1.437034	32.357208	32.516368
816	1	3.592585	33.601716	32.516368
817	1	0.000000	32.357208	36.580914
818	1	0.718517	33.601716	40.645460
819	1	2.155551	33.601716	36.580914
820	1	2.874068	32.357208	40.645460
821	1	1.437034	32.357208	38.613187
822	1	3.592585	33.601716	38.613187
823	1	0.000000	32.357208	42.677733
824	1	0.718517	33.601716	46.742279
825	1	2.155551	33.601716	42.677733
826	1	2.874068	32.357208	46.742279
827	1	1.437034	32.357208	44.710006
828	1	3.592585	33.601716	44.710006
829	1	0.000000	32.357208	48.774552
830	1	0.718517	33.601716	52.839098
831	1	2.155551	33.601716	48.774552
832	1	2.874068	32.357208	52.839098
833	1	1.437034	32.357208	50.806825
834	1	3.592585	33.601716	50.806825
835	1	0.000000	32.357208	54.871371
836	1	0.718517	33.601716	58.935917
837	1	2.155551	33.601716	54.871371
838	1	2.874068	32.357208	58.935917
839	1	1.437034	32.357208	56.903644
840	1	3.592585	33.601716	56.903644
841	1	0.000000	34.846224	0.000000
842	1	0.718517	36.090732	4.064546
843	1	2.155551	36.090732	0.000000
844	1	2.874068	34.846224	4.064546
845	1	1.437034	34.846224	2.032273
846	1	3.592585	36.090732	2.032273
847	1	0.000000	34.846224	6.096819
848	1	0.718517	36.090732	10.161365
849	1	2.155551	36.090732	6.096819
850	1	2.874068	34.846224	10.161365
851	1	1.437034	34.846224	8.129092
852	1	3.592585	36.090732	8.129092
853	1	0.000000	34.846224	12.193638
854	1	0.718517	36.090732	16.258184
855	1	2.155551	36.090732	12.193638
856	1	2.874068	34.846224	16.258184
857	1	1.437034	34.846224	14.225911
858	1	3.592585	36.090732	14.225911
859	1	0.000000	34.846224	18.290457
860	1	0.718517	36.090732	22.355003
861	1	2.155551	36.090732	18.290457
862	1	2.874068	34.846224	22.355003
863	1	1.437034	34.846224	20.322730
864	1	3.592585	36.090732	20.322730
865	1	0.000000	34.846224	24.387276
866	1	0.718517	36.090732	28.451822