Kikuchi_sphere_radius
39.84063745
Kikuchi_line_intensity
1360
-1.62371475	-0.40176520	-0.16401996	0.00280425
-1.62371475	-0.40176520	0.00000000	0.01551655
-1.62371475	-0.40176520	0.16401996	169.64681436
-1.62371475	0.00000000	-0.49205988	0.00391767
-1.62371475	0.00000000	-0.32803992	0.57587576
-1.62371475	0.00000000	-0.16401996	0.00402957
-1.62371475	0.00000000	0.00000000	0.00384748
-1.62371475	0.00000000	0.16401996	0.60507221
-1.62371475	0.00000000	0.32803992	0.00307790
-1.62371475	0.00000000	0.49205988	0.00257927
-1.62371475	0.40176520	-0.16401996	0.01109541
-1.62371475	0.40176520	0.00000000	0.01077579
-1.62371475	0.40176520	0.16401996	170.64787874
-1.39175550	-0.80353040	-0.49205988	451.73534135
-1.39175550	-0.80353040	-0.32803992	0.06973150
-1.39175550	-0.80353040	-0.16401996	0.21579614
-1.39175550	-0.80353040	0.00000000	530.27678094
-1.39175550	-0.80353040	0.16401996	0.07663918
-1.39175550	-0.80353040	0.32803992	0.20714869
-1.39175550	-0.80353040	0.49205988	451.15224529
-1.39175550	-0.40176520	-0.82009980	0.18303638
-1.39175550	-0.40176520	-0.65607984	0.18477608
-1.39175550	-0.40176520	-0.49205988	1.04905502
-1.39175550	-0.40176520	-0.32803992	0.27574701
-1.39175550	-0.40176520	-0.16401996	0.26705840
-1.39175550	-0.40176520	0.00000000	1.25001275
-1.39175550	-0.40176520	0.16401996	0.30328111
-1.39175550	-0.40176520	0.32803992	0.27178744
-1.39175550	-0.40176520	0.49205988	1.04638123
-1.39175550	-0.40176520	0.65607984	0.23724124
-1.39175550	-0.40176520	0.82009980	0.19999256
-1.39175550	0.00000000	-0.82009980	0.00032711
-1.39175550	0.00000000	-0.65607984	0.00030086
-1.39175550	0.00000000	-0.49205988	860.04356505
-1.39175550	0.00000000	-0.32803992	0.00026696
-1.39175550	0.00000000	-0.16401996	0.00026282
-1.39175550	0.00000000	0.00000000	1040.24250226
-1.39175550	0.00000000	0.16401996	0.00028823
-1.39175550	0.00000000	0.32803992	0.00031681
-1.39175550	0.00000000	0.49205988	863.25826821
-1.39175550	0.00000000	0.65607984	0.00040902
-1.39175550	0.00000000	0.82009980	0.00046332
-1.39175550	0.40176520	-0.82009980	0.12055689
-1.39175550	0.40176520	-0.65607984	0.13566097
-1.39175550	0.40176520	-0.49205988	0.36446474
-1.39175550	0.40176520	-0.32803992	0.19982452
-1.39175550	0.40176520	-0.16401996	0.19015205
-1.39175550	0.40176520	0.00000000	0.43338014
-1.39175550	0.40176520	0.16401996	0.23682387
-1.39175550	0.40176520	0.32803992	0.18970408
-1.39175550	0.40176520	0.49205988	0.36432127
-1.39175550	0.40176520	0.65607984	0.19638108
-1.39175550	0.40176520	0.82009980	0.13806949
-1.39175550	0.80353040	-0.49205988	454.09992964
-1.39175550	0.80353040	-0.32803992	0.13627229
-1.39175550	0.80353040	-0.16401996	0.09672464
-1.39175550	0.80353040	0.00000000	532.98746198
-1.39175550	0.80353040	0.16401996	0.14845400
-1.39175550	0.80353040	0.32803992	0.10139898
-1.39175550	0.80353040	0.49205988	453.41073691
-1.15979625	-1.20529560	-0.16401996	440.17581148
-1.15979625	-1.20529560	0.00000000	0.25512502
-1.15979625	-1.20529560	0.16401996	0.29959247
-1.15979625	-0.80353040	-0.82009980	0.90308245
-1.15979625	-0.80353040	-0.65607984	1.32554679
-1.15979625	-0.80353040	-0.49205988	2.35313394
-1.15979625	-0.80353040	-0.32803992	1.43039772
-1.15979625	-0.80353040	-0.16401996	1.80298695
-1.15979625	-0.80353040	0.00000000	2.86159730
-1.15979625	-0.80353040	0.16401996	1.56148101
-1.15979625	-0.80353040	0.32803992	1.69174020
-1.15979625	-0.80353040	0.49205988	2.38509179
-1.15979625	-0.80353040	0.65607984	1.14469785
-1.15979625	-0.80353040	0.82009980	1.12548615
-1.15979625	-0.40176520	-1.14813972	378.23846594
-1.15979625	-0.40176520	-0.98411976	0.14329540
-1.15979625	-0.40176520	-0.82009980	0.25380565
-1.15979625	-0.40176520	-0.65607984	734.66337251
-1.15979625	-0.40176520	-0.49205988	0.26551245
-1.15979625	-0.40176520	-0.32803992	0.42352686
-1.15979625	-0.40176520	-0.16401996	1068.38370922
-1.15979625	-0.40176520	0.00000000	0.35093103
-1.15979625	-0.40176520	0.16401996	0.46277288
-1.15979625	-0.40176520	0.32803992	987.53786906
-1.15979625	-0.40176520	0.49205988	0.29631881
-1.15979625	-0.40176520	0.65607984	0.31842380
-1.15979625	-0.40176520	0.82009980	603.78602570
-1.15979625	-0.40176520	0.98411976	0.17954359
-1.15979625	-0.40176520	1.14813972	0.16249041
-1.15979625	0.00000000	-1.14813972	0.34752157
-1.15979625	0.00000000	-0.98411976	0.03205608
-1.15979625	0.00000000	-0.82009980	0.03780150
-1.15979625	0.00000000	-0.65607984	0.66102605
-1.15979625	0.00000000	-0.49205988	0.04944747
-1.15979625	0.00000000	-0.32803992	0.05388688
-1.15979625	0.00000000	-0.16401996	0.95714913
-1.15979625	0.00000000	0.00000000	0.05582730
-1.15979625	0.00000000	0.16401996	0.05267437
-1.15979625	0.00000000	0.32803992	0.87555009
-1.15979625	0.00000000	0.49205988	0.04071538
-1.15979625	0.00000000	0.65607984	0.03384739
-1.15979625	0.00000000	0.82009980	0.52959644
-1.15979625	0.00000000	0.98411976	0.02188703
-1.15979625	0.00000000	1.14813972	0.01730657
-1.15979625	0.40176520	-1.14813972	378.87119530
-1.15979625	0.40176520	-0.98411976	0.26683820
-1.15979625	0.40176520	-0.82009980	0.34096964
-1.15979625	0.40176520	-0.65607984	735.84829999
-1.15979625	0.40176520	-0.49205988	0.49167234
-1.15979625	0.40176520	-0.32803992	0.56500477
-1.15979625	0.40176520	-0.16401996	1070.04810056
-1.15979625	0.40176520	0.00000000	0.63381488
-1.15979625	0.40176520	0.16401996	0.63199948
-1.15979625	0.40176520	0.32803992	989.02427178
-1.15979625	0.40176520	0.49205988	0.51161204
-1.15979625	0.40176520	0.65607984	0.45928805
-1.15979625	0.40176520	0.82009980	604.66241522
-1.15979625	0.40176520	0.98411976	0.28962453
-1.15979625	0.40176520	1.14813972	0.25629388
-1.15979625	0.80353040	-0.82009980	1.62541660
-1.15979625	0.80353040	-0.65607984	0.00899361
-1.15979625	0.80353040	-0.49205988	1.35496079
-1.15979625	0.80353040	-0.32803992	2.46091561
-1.15979625	0.80353040	-0.16401996	0.01646592
-1.15979625	0.80353040	0.00000000	1.69527507
-1.15979625	0.80353040	0.16401996	2.64879344
-1.15979625	0.80353040	0.32803992	0.01928894
-1.15979625	0.80353040	0.49205988	1.41077851
-1.15979625	0.80353040	0.65607984	1.97174526
-1.15979625	0.80353040	0.82009980	0.01553621
-1.15979625	1.20529560	-0.16401996	442.84058940
-1.15979625	1.20529560	0.00000000	0.34076182
-1.15979625	1.20529560	0.16401996	0.48365734
-0.92783700	-1.20529560	-0.65607984	3.78735465
-0.92783700	-1.20529560	-0.49205988	8.05856360
-0.92783700	-1.20529560	-0.32803992	1.53529770
-0.92783700	-1.20529560	-0.16401996	5.05031023
-0.92783700	-1.20529560	0.00000000	9.72009368
-0.92783700	-1.20529560	0.16401996	1.62930104
-0.92783700	-1.20529560	0.32803992	4.75486853
-0.92783700	-1.20529560	0.49205988	8.23935544
-0.92783700	-1.20529560	0.65607984	1.21513500
-0.92783700	-0.80353040	-1.14813972	0.65919626
-0.92783700	-0.80353040	-0.98411976	1.06880998
-0.92783700	-0.80353040	-0.82009980	704.91692073
-0.92783700	-0.80353040	-0.65607984	1.30793374
-0.92783700	-0.80353040	-0.49205988	1.98423103
-0.92783700	-0.80353040	-0.32803992	1157.00736056
-0.92783700	-0.80353040	-0.16401996	1.93977010
-0.92783700	-0.80353040	0.00000000	2.54585414
-0.92783700	-0.80353040	0.16401996	1254.14512205
-0.92783700	-0.80353040	0.32803992	1.82671428
-0.92783700	-0.80353040	0.49205988	2.02044786
-0.92783700	-0.80353040	0.65607984	862.73241003
-0.92783700	-0.80353040	0.82009980	1.13807729
-0.92783700	-0.80353040	0.98411976	1.10980931
-0.92783700	-0.80353040	1.14813972	443.67188911
-0.92783700	-0.40176520	-1.31215968	1.06553156
-0.92783700	-0.40176520	-1.14813972	1.81802398
-0.92783700	-0.40176520	-0.98411976	2.43912072
-0.92783700	-0.40176520	-0.82009980	2.36117589
-0.92783700	-0.40176520	-0.65607984	3.84523188
-0.92783700	-0.40176520	-0.49205988	4.96045572
-0.92783700	-0.40176520	-0.32803992	4.23412462
-0.92783700	-0.40176520	-0.16401996	6.01743384
-0.92783700	-0.40176520	0.00000000	6.67861564
-0.92783700	-0.40176520	0.16401996	4.66290200
-0.92783700	-0.40176520	0.32803992	5.45114497
-0.92783700	-0.40176520	0.49205988	5.02686948
-0.92783700	-0.40176520	0.65607984	2.96762641
-0.92783700	-0.40176520	0.82009980	3.03672803
-0.92783700	-0.40176520	0.98411976	2.50557757
-0.92783700	-0.40176520	1.14813972	1.39384682
-0.92783700	-0.40176520	1.31215968	1.37113437
-0.92783700	0.00000000	-1.31215968	1560.56142232
-0.92783700	0.00000000	-1.14813972	0.00439560
-0.92783700	0.00000000	-0.98411976	0.00541151
-0.92783700	0.00000000	-0.82009980	3666.13679044
-0.92783700	0.00000000	-0.65607984	0.00831431
-0.92783700	0.00000000	-0.49205988	0.01019962
-0.92783700	0.00000000	-0.32803992	6947.82594066
-0.92783700	0.00000000	-0.16401996	0.01403182
-0.92783700	0.00000000	0.00000000	0.01536023
-0.92783700	0.00000000	0.16401996	7746.34882892
-0.92783700	0.00000000	0.32803992	0.01567811
-0.92783700	0.00000000	0.49205988	0.01472960
-0.92783700	0.00000000	0.65607984	4722.35322735
-0.92783700	0.00000000	0.82009980	0.01194375
-0.92783700	0.00000000	0.98411976	0.01048340
-0.92783700	0.00000000	1.14813972	2094.02748469
-0.92783700	0.00000000	1.31215968	0.00808853
-0.92783700	0.40176520	-1.31215968	0.00199381
-0.92783700	0.40176520	-1.14813972	1.77040226
-0.92783700	0.40176520	-0.98411976	2.13590021
-0.92783700	0.40176520	-0.82009980	0.00817690
-0.92783700	0.40176520	-0.65607984	3.88923331
-0.92783700	0.40176520	-0.49205988	4.22678523
-0.92783700	0.40176520	-0.32803992	0.02047454
-0.92783700	0.40176520	-0.16401996	6.22250763
-0.92783700	0.40176520	0.00000000	5.61192092
-0.92783700	0.40176520	0.16401996	0.02674427
-0.92783700	0.40176520	0.32803992	5.68281392
-0.92783700	0.40176520	0.49205988	4.21657824
-0.92783700	0.40176520	0.65607984	0.01811169
-0.92783700	0.40176520	0.82009980	3.14849235
-0.92783700	0.40176520	0.98411976	2.12407403
-0.92783700	0.40176520	1.14813972	0.00846970
-0.92783700	0.40176520	1.31215968	1.39356883
-0.92783700	0.80353040	-1.14813972	0.73112306
-0.92783700	0.80353040	-0.98411976	0.94482728
-0.92783700	0.80353040	-0.82009980	706.43309883
-0.92783700	0.80353040	-0.65607984	1.48343031
-0.92783700	0.80353040	-0.49205988	1.74214269
-0.92783700	0.80353040	-0.32803992	1159.37480566
-0.92783700	0.80353040	-0.16401996	2.21597188
-0.92783700	0.80353040	0.00000000	2.25018785
-0.92783700	0.80353040	0.16401996	1256.59694962
-0.92783700	0.80353040	0.32803992	2.07261484
-0.92783700	0.80353040	0.49205988	1.82169223
-0.92783700	0.80353040	0.65607984	864.34766131
-0.92783700	0.80353040	0.82009980	1.26421512
-0.92783700	0.80353040	0.98411976	1.03548027
-0.92783700	0.80353040	1.14813972	444.46737798
-0.92783700	1.20529560	-0.65607984	7.21810709
-0.92783700	1.20529560	-0.49205988	3.96109234
-0.92783700	1.20529560	-0.32803992	0.18730866
-0.92783700	1.20529560	-0.16401996	9.70180614
-0.92783700	1.20529560	0.00000000	4.74335235
-0.92783700	1.20529560	0.16401996	0.20241838
-0.92783700	1.20529560	0.32803992	9.23530823
-0.92783700	1.20529560	0.49205988	3.97527847
-0.92783700	1.20529560	0.65607984	0.14486774
-0.69587775	-1.20529560	-0.82009980	0.94155205
-0.69587775	-1.20529560	-0.65607984	1.35192618
-0.69587775	-1.20529560	-0.49205988	411.58816507
-0.69587775	-1.20529560	-0.32803992	1.51688300
-0.69587775	-1.20529560	-0.16401996	1.93337791
-0.69587775	-1.20529560	0.00000000	499.41010245
-0.69587775	-1.20529560	0.16401996	1.66493652
-0.69587775	-1.20529560	0.32803992	1.81634574
-0.69587775	-1.20529560	0.49205988	411.80107664
-0.69587775	-1.20529560	0.65607984	1.21273534
-0.69587775	-1.20529560	0.82009980	1.15401875
-0.69587775	-0.80353040	-1.31215968	5.36527310
-0.69587775	-0.80353040	-1.14813972	3.30251112
-0.69587775	-0.80353040	-0.98411976	2.85680880
-0.69587775	-0.80353040	-0.82009980	11.77624771
-0.69587775	-0.80353040	-0.65607984	7.25668113
-0.69587775	-0.80353040	-0.49205988	5.59095605
-0.69587775	-0.80353040	-0.32803992	20.78532788
-0.69587775	-0.80353040	-0.16401996	11.46366219
-0.69587775	-0.80353040	0.00000000	7.34939019
-0.69587775	-0.80353040	0.16401996	22.89727206
-0.69587775	-0.80353040	0.32803992	10.44135920
-0.69587775	-0.80353040	0.49205988	5.56587966
-0.69587775	-0.80353040	0.65607984	14.89926759
-0.69587775	-0.80353040	0.82009980	5.79092136
-0.69587775	-0.80353040	0.98411976	2.83026511
-0.69587775	-0.80353040	1.14813972	7.15414883
-0.69587775	-0.80353040	1.31215968	2.51230491
-0.69587775	-0.40176520	-1.47617964	659.54413113
-0.69587775	-0.40176520	-1.31215968	0.73465716
-0.69587775	-0.40176520	-1.14813972	1.07674450
-0.69587775	-0.40176520	-0.98411976	1759.20332547
-0.69587775	-0.40176520	-0.82009980	1.89629534
-0.69587775	-0.40176520	-0.65607984	2.71887671
-0.69587775	-0.40176520	-0.49205988	4124.13639341
-0.69587775	-0.40176520	-0.32803992	3.97278693
-0.69587775	-0.40176520	-0.16401996	4.88786596
-0.69587775	-0.40176520	0.00000000	6015.10237356
-0.69587775	-0.40176520	0.16401996	4.59144558
-0.69587775	-0.40176520	0.32803992	4.30958647
-0.69587775	-0.40176520	0.49205988	4127.79579783
-0.69587775	-0.40176520	0.65607984	2.63696651
-0.69587775	-0.40176520	0.82009980	2.06936142
-0.69587775	-0.40176520	0.98411976	1762.35151056
-0.69587775	-0.40176520	1.14813972	1.09422343
-0.69587775	-0.40176520	1.31215968	0.79546232
-0.69587775	-0.40176520	1.47617964	661.33991736
-0.69587775	0.00000000	-1.47617964	0.13523605
-0.69587775	0.00000000	-1.31215968	0.03876140
-0.69587775	0.00000000	-1.14813972	0.04693899
-0.69587775	0.00000000	-0.98411976	0.34746232
-0.69587775	0.00000000	-0.82009980	0.07030311
-0.69587775	0.00000000	-0.65607984	0.08552224
-0.69587775	0.00000000	-0.49205988	0.83098197
-0.69587775	0.00000000	-0.32803992	0.11806947
-0.69587775	0.00000000	-0.16401996	0.12917771
-0.69587775	0.00000000	0.00000000	1.26356374
-0.69587775	0.00000000	0.16401996	0.11999745
-0.69587775	0.00000000	0.32803992	0.10210421
-0.69587775	0.00000000	0.49205988	0.81529640
-0.69587775	0.00000000	0.65607984	0.06490763
-0.69587775	0.00000000	0.82009980	0.05045566
-0.69587775	0.00000000	0.98411976	0.33458097
-0.69587775	0.00000000	1.14813972	0.03078527
-0.69587775	0.00000000	1.31215968	0.02458452
-0.69587775	0.00000000	1.47617964	0.12789007
-0.69587775	0.40176520	-1.47617964	659.81660088
-0.69587775	0.40176520	-1.31215968	0.80501247
-0.69587775	0.40176520	-1.14813972	1.17268649
-0.69587775	0.40176520	-0.98411976	1759.90255628
-0.69587775	0.40176520	-0.82009980	2.11579580
-0.69587775	0.40176520	-0.65607984	2.91406155
-0.69587775	0.40176520	-0.49205988	4125.69339829
-0.69587775	0.40176520	-0.32803992	4.46328128
-0.69587775	0.40176520	-0.16401996	5.22725116
-0.69587775	0.40176520	0.00000000	6017.22685971
-0.69587775	0.40176520	0.16401996	5.13981504
-0.69587775	0.40176520	0.32803992	4.66138084
-0.69587775	0.40176520	0.49205988	4129.12971706
-0.69587775	0.40176520	0.65607984	2.90993352
-0.69587775	0.40176520	0.82009980	2.29695414
-0.69587775	0.40176520	0.98411976	1762.85353972
-0.69587775	0.40176520	1.14813972	1.17619957
-0.69587775	0.40176520	1.31215968	0.92151447
-0.69587775	0.40176520	1.47617964	661.49463689
-0.69587775	0.80353040	-1.31215968	2.48964157
-0.69587775	0.80353040	-1.14813972	6.88306305
-0.69587775	0.80353040	-0.98411976	0.85376329
-0.69587775	0.80353040	-0.82009980	5.79371598
-0.69587775	0.80353040	-0.65607984	14.44152999
-0.69587775	0.80353040	-0.49205988	1.72393398
-0.69587775	0.80353040	-0.32803992	10.54140595
-0.69587775	0.80353040	-0.16401996	22.36620808
-0.69587775	0.80353040	0.00000000	2.29218311
-0.69587775	0.80353040	0.16401996	11.67740361
-0.69587775	0.80353040	0.32803992	20.45854324
-0.69587775	0.80353040	0.49205988	1.72238719
-0.69587775	0.80353040	0.65607984	7.45988132
-0.69587775	0.80353040	0.82009980	11.67349113
-0.69587775	0.80353040	0.98411976	0.85172710
-0.69587775	0.80353040	1.14813972	3.42793887
-0.69587775	0.80353040	1.31215968	5.35093537
-0.69587775	1.20529560	-0.82009980	1.08283966
-0.69587775	1.20529560	-0.65607984	1.36255708
-0.69587775	1.20529560	-0.49205988	413.00804576
-0.69587775	1.20529560	-0.32803992	1.75080845
-0.69587775	1.20529560	-0.16401996	1.94678591
-0.69587775	1.20529560	0.00000000	501.04689903
-0.69587775	1.20529560	0.16401996	1.91248614
-0.69587775	1.20529560	0.32803992	1.85201149
-0.69587775	1.20529560	0.49205988	413.09665521
-0.69587775	1.20529560	0.65607984	1.37465398
-0.69587775	1.20529560	0.82009980	1.20829949
-0.46391850	-1.60706080	-0.16401996	119.06675068
-0.46391850	-1.60706080	0.00000000	1.57645886
-0.46391850	-1.60706080	0.16401996	0.46166526
-0.46391850	-1.20529560	-0.98411976	8.07027565
-0.46391850	-1.20529560	-0.82009980	17.94377909
-0.46391850	-1.20529560	-0.65607984	2.42686731
-0.46391850	-1.20529560	-0.49205988	14.32114661
-0.46391850	-1.20529560	-0.32803992	28.79560971
-0.46391850	-1.20529560	-0.16401996	3.49210299
-0.46391850	-1.20529560	0.00000000	17.98787897
-0.46391850	-1.20529560	0.16401996	31.28639209
-0.46391850	-1.20529560	0.32803992	3.23036205
-0.46391850	-1.20529560	0.49205988	14.49195564
-0.46391850	-1.20529560	0.65607984	22.22990917
-0.46391850	-1.20529560	0.82009980	1.98904744
-0.46391850	-1.20529560	0.98411976	8.26536371
-0.46391850	-0.80353040	-1.31215968	1.96646261
-0.46391850	-0.80353040	-1.14813972	557.54119413
-0.46391850	-0.80353040	-0.98411976	4.19809915
-0.46391850	-0.80353040	-0.82009980	4.87088720
-0.46391850	-0.80353040	-0.65607984	1302.37242961
-0.46391850	-0.80353040	-0.49205988	8.97137299
-0.46391850	-0.80353040	-0.32803992	9.50844467
-0.46391850	-0.80353040	-0.16401996	2171.82290985
-0.46391850	-0.80353040	0.00000000	12.37953016
-0.46391850	-0.80353040	0.16401996	10.68637469
-0.46391850	-0.80353040	0.32803992	1945.77965227
-0.46391850	-0.80353040	0.49205988	9.01548591
-0.46391850	-0.80353040	0.65607984	6.42882475
-0.46391850	-0.80353040	0.82009980	1007.56334034
-0.46391850	-0.80353040	0.98411976	4.23922785
-0.46391850	-0.80353040	1.14813972	2.75124672
-0.46391850	-0.80353040	1.31215968	412.88191568
-0.46391850	-0.40176520	-1.47617964	4.01368539
-0.46391850	-0.40176520	-1.31215968	6.06422224
-0.46391850	-0.40176520	-1.14813972	2.56505380
-0.46391850	-0.40176520	-0.98411976	10.99089680
-0.46391850	-0.40176520	-0.82009980	17.27496859
-0.46391850	-0.40176520	-0.65607984	7.10165560
-0.46391850	-0.40176520	-0.49205988	28.49129278
-0.46391850	-0.40176520	-0.32803992	41.98966607
-0.46391850	-0.40176520	-0.16401996	14.89902373
-0.46391850	-0.40176520	0.00000000	46.82259434
-0.46391850	-0.40176520	0.16401996	50.18116853
-0.46391850	-0.40176520	0.32803992	12.37695866
-0.46391850	-0.40176520	0.49205988	27.96063736
-0.46391850	-0.40176520	0.65607984	23.59901349
-0.46391850	-0.40176520	0.82009980	5.08553974
-0.46391850	-0.40176520	0.98411976	10.57802426
-0.46391850	-0.40176520	1.14813972	8.34953533
-0.46391850	-0.40176520	1.31215968	1.79444041
-0.46391850	-0.40176520	1.47617964	3.78313677
-0.46391850	0.00000000	-1.47617964	0.00143866
-0.46391850	0.00000000	-1.31215968	0.00154186
-0.46391850	0.00000000	-1.14813972	6528.15991924
-0.46391850	0.00000000	-0.98411976	0.00195440
-0.46391850	0.00000000	-0.82009980	0.00239263
-0.46391850	0.00000000	-0.65607984	20087.85872343
-0.46391850	0.00000000	-0.49205988	0.00429983
-0.46391850	0.00000000	-0.32803992	0.00634738
-0.46391850	0.00000000	-0.16401996	52842.19855757
-0.46391850	0.00000000	0.00000000	0.01235688
-0.46391850	0.00000000	0.16401996	0.01398632
-0.46391850	0.00000000	0.32803992	40634.12503766
-0.46391850	0.00000000	0.49205988	0.01311864
-0.46391850	0.00000000	0.65607984	0.01211887
-0.46391850	0.00000000	0.82009980	13853.82609110
-0.46391850	0.00000000	0.98411976	0.01030549
-0.46391850	0.00000000	1.14813972	0.00938456
-0.46391850	0.00000000	1.31215968	4501.09794838
-0.46391850	0.00000000	1.47617964	0.00792536
-0.46391850	0.40176520	-1.47617964	4.31443914
-0.46391850	0.40176520	-1.31215968	5.47982498
-0.46391850	0.40176520	-1.14813972	0.80311725
-0.46391850	0.40176520	-0.98411976	12.27228956
-0.46391850	0.40176520	-0.82009980	15.12718510
-0.46391850	0.40176520	-0.65607984	2.29817771
-0.46391850	0.40176520	-0.49205988	32.55364653
-0.46391850	0.40176520	-0.32803992	36.13535671
-0.46391850	0.40176520	-0.16401996	4.91173152
-0.46391850	0.40176520	0.00000000	54.02571505
-0.46391850	0.40176520	0.16401996	42.98231044
-0.46391850	0.40176520	0.32803992	4.10051815
-0.46391850	0.40176520	0.49205988	32.17158920
-0.46391850	0.40176520	0.65607984	20.37202198
-0.46391850	0.40176520	0.82009980	1.67057286
-0.46391850	0.40176520	0.98411976	11.97830618
-0.46391850	0.40176520	1.14813972	7.36308383
-0.46391850	0.40176520	1.31215968	0.57632554
-0.46391850	0.40176520	1.47617964	4.15354755
-0.46391850	0.80353040	-1.31215968	2.41980555
-0.46391850	0.80353040	-1.14813972	557.72093836
-0.46391850	0.80353040	-0.98411976	3.47455364
-0.46391850	0.80353040	-0.82009980	5.79707464
-0.46391850	0.80353040	-0.65607984	1302.72903124
-0.46391850	0.80353040	-0.49205988	7.62816731
-0.46391850	0.80353040	-0.32803992	11.10875177
-0.46391850	0.80353040	-0.16401996	2172.29190217
-0.46391850	0.80353040	0.00000000	10.66257407
-0.46391850	0.80353040	0.16401996	12.41921462
-0.46391850	0.80353040	0.32803992	1946.06315055
-0.46391850	0.80353040	0.49205988	7.76350136
-0.46391850	0.80353040	0.65607984	7.52864081
-0.46391850	0.80353040	0.82009980	1007.62178194
-0.46391850	0.80353040	0.98411976	3.60152830
-0.46391850	0.80353040	1.14813972	3.29189161
-0.46391850	0.80353040	1.31215968	412.85917674
-0.46391850	1.20529560	-0.98411976	14.67045190
-0.46391850	1.20529560	-0.82009980	9.79797405
-0.46391850	1.20529560	-0.65607984	1.30682994
-0.46391850	1.20529560	-0.49205988	25.83398052
-0.46391850	1.20529560	-0.32803992	15.82541644
-0.46391850	1.20529560	-0.16401996	1.90885044
-0.46391850	1.20529560	0.00000000	32.41695614
-0.46391850	1.20529560	0.16401996	17.18649010
-0.46391850	1.20529560	0.32803992	1.76545869
-0.46391850	1.20529560	0.49205988	26.27084996
-0.46391850	1.20529560	0.65607984	12.11963061
-0.46391850	1.20529560	0.82009980	1.07028152
-0.46391850	1.20529560	0.98411976	15.18174530
-0.46391850	1.60706080	-0.16401996	119.60591562
-0.46391850	1.60706080	0.00000000	0.47375555
-0.46391850	1.60706080	0.16401996	1.67649908
-0.23195925	-1.60706080	-0.49205988	2.56956587
-0.23195925	-1.60706080	-0.32803992	0.57462091
-0.23195925	-1.60706080	-0.16401996	6.23069800
-0.23195925	-1.60706080	0.00000000	2.87973093
-0.23195925	-1.60706080	0.16401996	0.61056998
-0.23195925	-1.60706080	0.32803992	5.89866286
-0.23195925	-1.60706080	0.49205988	2.53939325
-0.23195925	-1.20529560	-1.14813972	1.31493061
-0.23195925	-1.20529560	-0.98411976	1.93318047
-0.23195925	-1.20529560	-0.82009980	229.56424504
-0.23195925	-1.20529560	-0.65607984	2.68515714
-0.23195925	-1.20529560	-0.49205988	3.64378785
-0.23195925	-1.20529560	-0.32803992	368.03140703
-0.23195925	-1.20529560	-0.16401996	4.00407827
-0.23195925	-1.20529560	0.00000000	4.67258934
-0.23195925	-1.20529560	0.16401996	397.47338674
-0.23195925	-1.20529560	0.32803992	3.70902552
-0.23195925	-1.20529560	0.49205988	3.64949391
-0.23195925	-1.20529560	0.65607984	277.88198349
-0.23195925	-1.20529560	0.82009980	2.22121202
-0.23195925	-1.20529560	0.98411976	1.93960263
-0.23195925	-1.20529560	1.14813972	148.15875004
-0.23195925	-0.80353040	-1.47617964	3.44645379
-0.23195925	-0.80353040	-1.31215968	2.62176399
-0.23195925	-0.80353040	-1.14813972	17.47635734
-0.23195925	-0.80353040	-0.98411976	9.30177966
-0.23195925	-0.80353040	-0.82009980	6.62587871
-0.23195925	-0.80353040	-0.65607984	41.95015972
-0.23195925	-0.80353040	-0.49205988	21.66183973
-0.23195925	-0.80353040	-0.32803992	13.43257897
-0.23195925	-0.80353040	-0.16401996	72.68710905
-0.23195925	-0.80353040	0.00000000	31.24447741
-0.23195925	-0.80353040	0.16401996	15.15670780
-0.23195925	-0.80353040	0.32803992	64.33728919
-0.23195925	-0.80353040	0.49205988	21.67225330
-0.23195925	-0.80353040	0.65607984	8.66115432
-0.23195925	-0.80353040	0.82009980	31.96531124
-0.23195925	-0.80353040	0.98411976	9.30960758
-0.23195925	-0.80353040	1.14813972	3.53934992
-0.23195925	-0.80353040	1.31215968	12.85265504
-0.23195925	-0.80353040	1.47617964	3.44964352
-0.23195925	-0.40176520	-1.47617964	1.30049379
-0.23195925	-0.40176520	-1.31215968	1744.72868910
-0.23195925	-0.40176520	-1.14813972	2.77112857
-0.23195925	-0.40176520	-0.98411976	4.05161466
-0.23195925	-0.40176520	-0.82009980	5562.35330795
-0.23195925	-0.40176520	-0.65607984	8.55917139
-0.23195925	-0.40176520	-0.49205988	12.52809549
-0.23195925	-0.40176520	-0.32803992	16612.91306797
-0.23195925	-0.40176520	-0.16401996	22.59572809
-0.23195925	-0.40176520	0.00000000	25.54282071
-0.23195925	-0.40176520	0.16401996	21656.67097408
-0.23195925	-0.40176520	0.32803992	17.43419814
-0.23195925	-0.40176520	0.49205988	12.56900680
-0.23195925	-0.40176520	0.65607984	8125.85467773
-0.23195925	-0.40176520	0.82009980	5.96360480
-0.23195925	-0.40176520	0.98411976	4.07752936
-0.23195925	-0.40176520	1.14813972	2563.81802169
-0.23195925	-0.40176520	1.31215968	1.94420310
-0.23195925	-0.40176520	1.47617964	1.31249625
-0.23195925	0.00000000	-1.64019960	0.01106396
-0.23195925	0.00000000	-1.47617964	0.01122686
-0.23195925	0.00000000	-1.31215968	0.03055841
-0.23195925	0.00000000	-1.14813972	0.01151282
-0.23195925	0.00000000	-0.98411976	0.01159444
-0.23195925	0.00000000	-0.82009980	0.09844451
-0.23195925	0.00000000	-0.65607984	0.01183155
-0.23195925	0.00000000	-0.49205988	0.01268055
-0.23195925	0.00000000	-0.32803992	0.40090590
-0.23195925	0.00000000	-0.16401996	0.01761330
-0.23195925	0.00000000	0.00000000	0.01837791
-0.23195925	0.00000000	0.16401996	0.63871797
-0.23195925	0.00000000	0.32803992	0.01045609
-0.23195925	0.00000000	0.49205988	0.00825695
-0.23195925	0.00000000	0.65607984	0.14514496
-0.23195925	0.00000000	0.82009980	0.00720897
-0.23195925	0.00000000	0.98411976	0.00728017
-0.23195925	0.00000000	1.14813972	0.04181394
-0.23195925	0.00000000	1.31215968	0.00750531
-0.23195925	0.00000000	1.47617964	0.00761442
-0.23195925	0.00000000	1.64019960	0.01389416
-0.23195925	0.40176520	-1.47617964	1.33937155
-0.23195925	0.40176520	-1.31215968	1744.87750482
-0.23195925	0.40176520	-1.14813972	2.70150498
-0.23195925	0.40176520	-0.98411976	4.08032013
-0.23195925	0.40176520	-0.82009980	5562.75128694
-0.23195925	0.40176520	-0.65607984	8.50470626
-0.23195925	0.40176520	-0.49205988	12.47493399
-0.23195925	0.40176520	-0.32803992	16613.83687531
-0.23195925	0.40176520	-0.16401996	22.63958153
-0.23195925	0.40176520	0.00000000	25.40332305
-0.23195925	0.40176520	0.16401996	21657.47010269
-0.23195925	0.40176520	0.32803992	17.43607521
-0.23195925	0.40176520	0.49205988	12.60959244
-0.23195925	0.40176520	0.65607984	8125.97079039
-0.23195925	0.40176520	0.82009980	5.89187994
-0.23195925	0.40176520	0.98411976	4.17037814
-0.23195925	0.40176520	1.14813972	2563.78192151
-0.23195925	0.40176520	1.31215968	1.87598428
-0.23195925	0.40176520	1.47617964	1.38520836
-0.23195925	0.80353040	-1.47617964	9.34325116
-0.23195925	0.80353040	-1.31215968	1.90798779
-0.23195925	0.80353040	-1.14813972	6.72856023
-0.23195925	0.80353040	-0.98411976	23.58947123
-0.23195925	0.80353040	-0.82009980	4.89899292
-0.23195925	0.80353040	-0.65607984	16.93712787
-0.23195925	0.80353040	-0.49205988	52.92295015
-0.23195925	0.80353040	-0.32803992	10.03805159
-0.23195925	0.80353040	-0.16401996	29.95961378
-0.23195925	0.80353040	0.00000000	75.45364161
-0.23195925	0.80353040	0.16401996	11.39356334
-0.23195925	0.80353040	0.32803992	26.41038648
-0.23195925	0.80353040	0.49205988	53.01696476
-0.23195925	0.80353040	0.65607984	6.51948793
-0.23195925	0.80353040	0.82009980	12.74622064
-0.23195925	0.80353040	0.98411976	23.66914031
-0.23195925	0.80353040	1.14813972	2.65543771
-0.23195925	0.80353040	1.31215968	4.84277918
-0.23195925	0.80353040	1.47617964	9.38629781
-0.23195925	1.20529560	-1.14813972	1.42331732
-0.23195925	1.20529560	-0.98411976	1.75190868
-0.23195925	1.20529560	-0.82009980	229.72856875
-0.23195925	1.20529560	-0.65607984	2.94674858
-0.23195925	1.20529560	-0.49205988	3.28082381
-0.23195925	1.20529560	-0.32803992	368.21744168
-0.23195925	1.20529560	-0.16401996	4.42170871
-0.23195925	1.20529560	0.00000000	4.20653833
-0.23195925	1.20529560	0.16401996	397.60668219
-0.23195925	1.20529560	0.32803992	4.09460385
-0.23195925	1.20529560	0.49205988	3.30569756
-0.23195925	1.20529560	0.65607984	277.93703465
-0.23195925	1.20529560	0.82009980	2.43572757
-0.23195925	1.20529560	0.98411976	1.78004371
-0.23195925	1.20529560	1.14813972	148.17157950
-0.23195925	1.60706080	-0.49205988	5.27942866
-0.23195925	1.60706080	-0.32803992	0.40696004
-0.23195925	1.60706080	-0.16401996	2.77276593
-0.23195925	1.60706080	0.00000000	6.27609650
-0.23195925	1.60706080	0.16401996	0.43380235
-0.23195925	1.60706080	0.32803992	2.65610705
-0.23195925	1.60706080	0.49205988	5.31918101
0.00000000	-1.60706080	-0.49205988	94.12000712
0.00000000	-1.60706080	-0.32803992	1.92967430
0.00000000	-1.60706080	-0.16401996	0.63184142
0.00000000	-1.60706080	0.00000000	107.03627226
0.00000000	-1.60706080	0.16401996	2.04252283
0.00000000	-1.60706080	0.32803992	0.59458713
0.00000000	-1.60706080	0.49205988	94.14826981
0.00000000	-1.20529560	-1.14813972	16.17341035
0.00000000	-1.20529560	-0.98411976	1.73100055
0.00000000	-1.20529560	-0.82009980	14.74999689
0.00000000	-1.20529560	-0.65607984	31.64714478
0.00000000	-1.20529560	-0.49205988	3.26076506
0.00000000	-1.20529560	-0.32803992	24.56238021
0.00000000	-1.20529560	-0.16401996	46.30422977
0.00000000	-1.20529560	0.00000000	4.18413135
0.00000000	-1.20529560	0.16401996	26.66550446
0.00000000	-1.20529560	0.32803992	42.69236371
0.00000000	-1.20529560	0.49205988	3.25662099
0.00000000	-1.20529560	0.65607984	18.10269736
0.00000000	-1.20529560	0.82009980	25.85998024
0.00000000	-1.20529560	0.98411976	1.72668726
0.00000000	-1.20529560	1.14813972	9.11606807
0.00000000	-0.80353040	-1.47617964	297.83199425
0.00000000	-0.80353040	-1.31215968	3.81416907
0.00000000	-0.80353040	-1.14813972	3.96478131
0.00000000	-0.80353040	-0.98411976	804.06939054
0.00000000	-0.80353040	-0.82009980	9.79732255
0.00000000	-0.80353040	-0.65607984	10.04476305
0.00000000	-0.80353040	-0.49205988	1897.25850564
0.00000000	-0.80353040	-0.32803992	20.33247345
0.00000000	-0.80353040	-0.16401996	18.02034215
0.00000000	-0.80353040	0.00000000	2772.13363911
0.00000000	-0.80353040	0.16401996	23.16552070
0.00000000	-0.80353040	0.32803992	15.77240963
0.00000000	-0.80353040	0.49205988	1897.35758204