ITEM: TIMESTEP
0
ITEM: NUMBER OF ATOMS
500
ITEM: BOX BOUNDS pp pp pp
0.0000000000000000e+00 1.8075000000000003e+01
0.0000000000000000e+00 1.8075000000000003e+01
0.0000000000000000e+00 1.8075000000000003e+01
ITEM: ATOMS id type x y z 
1 1 0 0 0 
2 1 1.8075 1.8075 0 
3 1 1.8075 0 1.8075 
4 1 0 1.8075 1.8075 
5 1 3.615 0 0 
8 1 3.615 1.8075 1.8075 
21 1 0 3.615 0 
23 1 1.8075 3.615 1.8075 
25 1 3.615 3.615 0 
101 1 0 0 3.615 
102 1 1.8075 1.8075 3.615 
105 1 3.615 0 3.615 
121 1 0 3.615 3.615 
125 1 3.615 3.615 3.615 
6 1 5.4225 1.8075 0 
7 1 5.4225 0 1.8075 
9 1 7.23 0 0 
12 1 7.23 1.8075 1.8075 
27 1 5.4225 3.615 1.8075 
29 1 7.23 3.615 0 
106 1 5.4225 1.8075 3.615 
109 1 7.23 0 3.615 
129 1 7.23 3.615 3.615 
10 1 9.0375 1.8075 0 
11 1 9.0375 0 1.8075 
13 1 10.845 0 0 
14 1 12.6525 1.8075 0 
15 1 12.6525 0 1.8075 
16 1 10.845 1.8075 1.8075 
31 1 9.0375 3.615 1.8075 
33 1 10.845 3.615 0 
35 1 12.6525 3.615 1.8075 
110 1 9.0375 1.8075 3.615 
113 1 10.845 0 3.615 
114 1 12.6525 1.8075 3.615 
133 1 10.845 3.615 3.615 
17 1 14.46 0 0 
18 1 16.2675 1.8075 0 
19 1 16.2675 0 1.8075 
20 1 14.46 1.8075 1.8075 
37 1 14.46 3.615 0 
39 1 16.2675 3.615 1.8075 
117 1 14.46 0 3.615 
118 1 16.2675 1.8075 3.615 
137 1 14.46 3.615 3.615 
22 1 1.8075 5.4225 0 
24 1 0 5.4225 1.8075 
28 1 3.615 5.4225 1.8075 
41 1 0 7.23 0 
43 1 1.8075 7.23 1.8075 
45 1 3.615 7.23 0 
122 1 1.8075 5.4225 3.615 
141 1 0 7.23 3.615 
145 1 3.615 7.23 3.615 
26 1 5.4225 5.4225 0 
32 1 7.23 5.4225 1.8075 
47 1 5.4225 7.23 1.8075 
49 1 7.23 7.23 0 
126 1 5.4225 5.4225 3.615 
149 1 7.23 7.23 3.615 
30 1 9.0375 5.4225 0 
34 1 12.6525 5.4225 0 
36 1 10.845 5.4225 1.8075 
51 1 9.0375 7.23 1.8075 
53 1 10.845 7.23 0 
55 1 12.6525 7.23 1.8075 
130 1 9.0375 5.4225 3.615 
134 1 12.6525 5.4225 3.615 
153 1 10.845 7.23 3.615 
38 1 16.2675 5.4225 0 
40 1 14.46 5.4225 1.8075 
57 1 14.46 7.23 0 
59 1 16.2675 7.23 1.8075 
138 1 16.2675 5.4225 3.615 
157 1 14.46 7.23 3.615 
42 1 1.8075 9.0375 0 
44 1 0 9.0375 1.8075 
48 1 3.615 9.0375 1.8075 
61 1 0 10.845 0 
62 1 1.8075 12.6525 0 
63 1 1.8075 10.845 1.8075 
64 1 0 12.6525 1.8075 
65 1 3.615 10.845 0 
68 1 3.615 12.6525 1.8075 
142 1 1.8075 9.0375 3.615 
161 1 0 10.845 3.615 
162 1 1.8075 12.6525 3.615 
165 1 3.615 10.845 3.615 
46 1 5.4225 9.0375 0 
52 1 7.23 9.0375 1.8075 
66 1 5.4225 12.6525 0 
67 1 5.4225 10.845 1.8075 
69 1 7.23 10.845 0 
72 1 7.23 12.6525 1.8075 
146 1 5.4225 9.0375 3.615 
166 1 5.4225 12.6525 3.615 
169 1 7.23 10.845 3.615 
50 1 9.0375 9.0375 0 
54 1 12.6525 9.0375 0 
56 1 10.845 9.0375 1.8075 
70 1 9.0375 12.6525 0 
71 1 9.0375 10.845 1.8075 
73 1 10.845 10.845 0 
74 1 12.6525 12.6525 0 
75 1 12.6525 10.845 1.8075 
76 1 10.845 12.6525 1.8075 
150 1 9.0375 9.0375 3.615 
154 1 12.6525 9.0375 3.615 
170 1 9.0375 12.6525 3.615 
173 1 10.845 10.845 3.615 
174 1 12.6525 12.6525 3.615 
58 1 16.2675 9.0375 0 
60 1 14.46 9.0375 1.8075 
77 1 14.46 10.845 0 
78 1 16.2675 12.6525 0 
79 1 16.2675 10.845 1.8075 
80 1 14.46 12.6525 1.8075 
158 1 16.2675 9.0375 3.615 
177 1 14.46 10.845 3.615 
178 1 16.2675 12.6525 3.615 
81 1 0 14.46 0 
82 1 1.8075 16.2675 0 
83 1 1.8075 14.46 1.8075 
84 1 0 16.2675 1.8075 
85 1 3.615 14.46 0 
88 1 3.615 16.2675 1.8075 
181 1 0 14.46 3.615 
182 1 1.8075 16.2675 3.615 
185 1 3.615 14.46 3.615 
86 1 5.4225 16.2675 0 
87 1 5.4225 14.46 1.8075 
89 1 7.23 14.46 0 
92 1 7.23 16.2675 1.8075 
186 1 5.4225 16.2675 3.615 
189 1 7.23 14.46 3.615 
90 1 9.0375 16.2675 0 
91 1 9.0375 14.46 1.8075 
93 1 10.845 14.46 0 
94 1 12.6525 16.2675 0 
95 1 12.6525 14.46 1.8075 
96 1 10.845 16.2675 1.8075 
190 1 9.0375 16.2675 3.615 
193 1 10.845 14.46 3.615 
194 1 12.6525 16.2675 3.615 
97 1 14.46 14.46 0 
98 1 16.2675 16.2675 0 
99 1 16.2675 14.46 1.8075 
100 1 14.46 16.2675 1.8075 
197 1 14.46 14.46 3.615 
198 1 16.2675 16.2675 3.615 
103 1 1.8075 0 5.4225 
104 1 0 1.8075 5.4225 
108 1 3.615 1.8075 5.4225 
123 1 1.8075 3.615 5.4225 
201 1 0 0 7.23 
202 1 1.8075 1.8075 7.23 
205 1 3.615 0 7.23 
221 1 0 3.615 7.23 
225 1 3.615 3.615 7.23 
107 1 5.4225 0 5.4225 
112 1 7.23 1.8075 5.4225 
127 1 5.4225 3.615 5.4225 
206 1 5.4225 1.8075 7.23 
209 1 7.23 0 7.23 
229 1 7.23 3.615 7.23 
111 1 9.0375 0 5.4225 
115 1 12.6525 0 5.4225 
116 1 10.845 1.8075 5.4225 
131 1 9.0375 3.615 5.4225 
135 1 12.6525 3.615 5.4225 
210 1 9.0375 1.8075 7.23 
213 1 10.845 0 7.23 
214 1 12.6525 1.8075 7.23 
233 1 10.845 3.615 7.23 
119 1 16.2675 0 5.4225 
120 1 14.46 1.8075 5.4225 
139 1 16.2675 3.615 5.4225 
217 1 14.46 0 7.23 
218 1 16.2675 1.8075 7.23 
237 1 14.46 3.615 7.23 
124 1 0 5.4225 5.4225 
128 1 3.615 5.4225 5.4225 
143 1 1.8075 7.23 5.4225 
222 1 1.8075 5.4225 7.23 
241 1 0 7.23 7.23 
245 1 3.615 7.23 7.23 
132 1 7.23 5.4225 5.4225 
147 1 5.4225 7.23 5.4225 
226 1 5.4225 5.4225 7.23 
249 1 7.23 7.23 7.23 
136 1 10.845 5.4225 5.4225 
151 1 9.0375 7.23 5.4225 
155 1 12.6525 7.23 5.4225 
230 1 9.0375 5.4225 7.23 
234 1 12.6525 5.4225 7.23 
253 1 10.845 7.23 7.23 
140 1 14.46 5.4225 5.4225 
159 1 16.2675 7.23 5.4225 
238 1 16.2675 5.4225 7.23 
257 1 14.46 7.23 7.23 
144 1 0 9.0375 5.4225 
148 1 3.615 9.0375 5.4225 
163 1 1.8075 10.845 5.4225 
164 1 0 12.6525 5.4225 
168 1 3.615 12.6525 5.4225 
242 1 1.8075 9.0375 7.23 
261 1 0 10.845 7.23 
262 1 1.8075 12.6525 7.23 
265 1 3.615 10.845 7.23 
152 1 7.23 9.0375 5.4225 
167 1 5.4225 10.845 5.4225 
172 1 7.23 12.6525 5.4225 
246 1 5.4225 9.0375 7.23 
266 1 5.4225 12.6525 7.23 
269 1 7.23 10.845 7.23 
156 1 10.845 9.0375 5.4225 
171 1 9.0375 10.845 5.4225 
175 1 12.6525 10.845 5.4225 
176 1 10.845 12.6525 5.4225 
250 1 9.0375 9.0375 7.23 
254 1 12.6525 9.0375 7.23 
270 1 9.0375 12.6525 7.23 
273 1 10.845 10.845 7.23 
274 1 12.6525 12.6525 7.23 
160 1 14.46 9.0375 5.4225 
179 1 16.2675 10.845 5.4225 
180 1 14.46 12.6525 5.4225 
258 1 16.2675 9.0375 7.23 
277 1 14.46 10.845 7.23 
278 1 16.2675 12.6525 7.23 
183 1 1.8075 14.46 5.4225 
184 1 0 16.2675 5.4225 
188 1 3.615 16.2675 5.4225 
281 1 0 14.46 7.23 
282 1 1.8075 16.2675 7.23 
285 1 3.615 14.46 7.23 
187 1 5.4225 14.46 5.4225 
192 1 7.23 16.2675 5.4225 
286 1 5.4225 16.2675 7.23 
289 1 7.23 14.46 7.23 
191 1 9.0375 14.46 5.4225 
195 1 12.6525 14.46 5.4225 
196 1 10.845 16.2675 5.4225 
290 1 9.0375 16.2675 7.23 
293 1 10.845 14.46 7.23 
294 1 12.6525 16.2675 7.23 
199 1 16.2675 14.46 5.4225 
200 1 14.46 16.2675 5.4225 
297 1 14.46 14.46 7.23 
298 1 16.2675 16.2675 7.23 
203 1 1.8075 0 9.0375 
204 1 0 1.8075 9.0375 
208 1 3.615 1.8075 9.0375 
223 1 1.8075 3.615 9.0375 
301 1 0 0 10.845 
302 1 1.8075 1.8075 10.845 
303 1 1.8075 0 12.6525 
304 1 0 1.8075 12.6525 
305 1 3.615 0 10.845 
308 1 3.615 1.8075 12.6525 
321 1 0 3.615 10.845 
323 1 1.8075 3.615 12.6525 
325 1 3.615 3.615 10.845 
207 1 5.4225 0 9.0375 
212 1 7.23 1.8075 9.0375 
227 1 5.4225 3.615 9.0375 
306 1 5.4225 1.8075 10.845 
307 1 5.4225 0 12.6525 
309 1 7.23 0 10.845 
312 1 7.23 1.8075 12.6525 
327 1 5.4225 3.615 12.6525 
329 1 7.23 3.615 10.845 
211 1 9.0375 0 9.0375 
215 1 12.6525 0 9.0375 
216 1 10.845 1.8075 9.0375 
231 1 9.0375 3.615 9.0375 
235 1 12.6525 3.615 9.0375 
310 1 9.0375 1.8075 10.845 
311 1 9.0375 0 12.6525 
313 1 10.845 0 10.845 
314 1 12.6525 1.8075 10.845 
315 1 12.6525 0 12.6525 
316 1 10.845 1.8075 12.6525 
331 1 9.0375 3.615 12.6525 
333 1 10.845 3.615 10.845 
335 1 12.6525 3.615 12.6525 
219 1 16.2675 0 9.0375 
220 1 14.46 1.8075 9.0375 
239 1 16.2675 3.615 9.0375 
317 1 14.46 0 10.845 
318 1 16.2675 1.8075 10.845 
319 1 16.2675 0 12.6525 
320 1 14.46 1.8075 12.6525 
337 1 14.46 3.615 10.845 
339 1 16.2675 3.615 12.6525 
224 1 0 5.4225 9.0375 
228 1 3.615 5.4225 9.0375 
243 1 1.8075 7.23 9.0375 
322 1 1.8075 5.4225 10.845 
324 1 0 5.4225 12.6525 
328 1 3.615 5.4225 12.6525 
341 1 0 7.23 10.845 
343 1 1.8075 7.23 12.6525 
345 1 3.615 7.23 10.845 
232 1 7.23 5.4225 9.0375 
247 1 5.4225 7.23 9.0375 
326 1 5.4225 5.4225 10.845 
332 1 7.23 5.4225 12.6525 
347 1 5.4225 7.23 12.6525 
349 1 7.23 7.23 10.845 
236 1 10.845 5.4225 9.0375 
251 1 9.0375 7.23 9.0375 
255 1 12.6525 7.23 9.0375 
330 1 9.0375 5.4225 10.845 
334 1 12.6525 5.4225 10.845 
336 1 10.845 5.4225 12.6525 
351 1 9.0375 7.23 12.6525 
353 1 10.845 7.23 10.845 
355 1 12.6525 7.23 12.6525 
240 1 14.46 5.4225 9.0375 
259 1 16.2675 7.23 9.0375 
338 1 16.2675 5.4225 10.845 
340 1 14.46 5.4225 12.6525 
357 1 14.46 7.23 10.845 
359 1 16.2675 7.23 12.6525 
244 1 0 9.0375 9.0375 
248 1 3.615 9.0375 9.0375 
263 1 1.8075 10.845 9.0375 
264 1 0 12.6525 9.0375 
268 1 3.615 12.6525 9.0375 
342 1 1.8075 9.0375 10.845 
344 1 0 9.0375 12.6525 
348 1 3.615 9.0375 12.6525 
361 1 0 10.845 10.845 
362 1 1.8075 12.6525 10.845 
363 1 1.8075 10.845 12.6525 
364 1 0 12.6525 12.6525 
365 1 3.615 10.845 10.845 
368 1 3.615 12.6525 12.6525 
252 1 7.23 9.0375 9.0375 
267 1 5.4225 10.845 9.0375 
272 1 7.23 12.6525 9.0375 
346 1 5.4225 9.0375 10.845 
352 1 7.23 9.0375 12.6525 
366 1 5.4225 12.6525 10.845 
367 1 5.4225 10.845 12.6525 
369 1 7.23 10.845 10.845 
372 1 7.23 12.6525 12.6525 
256 1 10.845 9.0375 9.0375 
271 1 9.0375 10.845 9.0375 
275 1 12.6525 10.845 9.0375 
276 1 10.845 12.6525 9.0375 
350 1 9.0375 9.0375 10.845 
354 1 12.6525 9.0375 10.845 
356 1 10.845 9.0375 12.6525 
370 1 9.0375 12.6525 10.845 
371 1 9.0375 10.845 12.6525 
373 1 10.845 10.845 10.845 
374 1 12.6525 12.6525 10.845 
375 1 12.6525 10.845 12.6525 
376 1 10.845 12.6525 12.6525 
260 1 14.46 9.0375 9.0375 
279 1 16.2675 10.845 9.0375 
280 1 14.46 12.6525 9.0375 
358 1 16.2675 9.0375 10.845 
360 1 14.46 9.0375 12.6525 
377 1 14.46 10.845 10.845 
378 1 16.2675 12.6525 10.845 
379 1 16.2675 10.845 12.6525 
380 1 14.46 12.6525 12.6525 
283 1 1.8075 14.46 9.0375 
284 1 0 16.2675 9.0375 
288 1 3.615 16.2675 9.0375 
381 1 0 14.46 10.845 
382 1 1.8075 16.2675 10.845 
383 1 1.8075 14.46 12.6525 
384 1 0 16.2675 12.6525 
385 1 3.615 14.46 10.845 
388 1 3.615 16.2675 12.6525 
287 1 5.4225 14.46 9.0375 
292 1 7.23 16.2675 9.0375 
386 1 5.4225 16.2675 10.845 
387 1 5.4225 14.46 12.6525 
389 1 7.23 14.46 10.845 
392 1 7.23 16.2675 12.6525 
291 1 9.0375 14.46 9.0375 
295 1 12.6525 14.46 9.0375 
296 1 10.845 16.2675 9.0375 
390 1 9.0375 16.2675 10.845 
391 1 9.0375 14.46 12.6525 
393 1 10.845 14.46 10.845 
394 1 12.6525 16.2675 10.845 
395 1 12.6525 14.46 12.6525 
396 1 10.845 16.2675 12.6525 
299 1 16.2675 14.46 9.0375 
300 1 14.46 16.2675 9.0375 
397 1 14.46 14.46 10.845 
398 1 16.2675 16.2675 10.845 
399 1 16.2675 14.46 12.6525 
400 1 14.46 16.2675 12.6525 
401 1 0 0 14.46 
402 1 1.8075 1.8075 14.46 
403 1 1.8075 0 16.2675 
404 1 0 1.8075 16.2675 
405 1 3.615 0 14.46 
408 1 3.615 1.8075 16.2675 
421 1 0 3.615 14.46 
423 1 1.8075 3.615 16.2675 
425 1 3.615 3.615 14.46 
406 1 5.4225 1.8075 14.46 
407 1 5.4225 0 16.2675 
409 1 7.23 0 14.46 
412 1 7.23 1.8075 16.2675 
427 1 5.4225 3.615 16.2675 
429 1 7.23 3.615 14.46 
410 1 9.0375 1.8075 14.46 
411 1 9.0375 0 16.2675 
413 1 10.845 0 14.46 
414 1 12.6525 1.8075 14.46 
415 1 12.6525 0 16.2675 
416 1 10.845 1.8075 16.2675 
431 1 9.0375 3.615 16.2675 
433 1 10.845 3.615 14.46 
435 1 12.6525 3.615 16.2675 
417 1 14.46 0 14.46 
418 1 16.2675 1.8075 14.46 
419 1 16.2675 0 16.2675 
420 1 14.46 1.8075 16.2675 
437 1 14.46 3.615 14.46 
439 1 16.2675 3.615 16.2675 
422 1 1.8075 5.4225 14.46 
424 1 0 5.4225 16.2675 
428 1 3.615 5.4225 16.2675 
441 1 0 7.23 14.46 
443 1 1.8075 7.23 16.2675 
445 1 3.615 7.23 14.46 
426 1 5.4225 5.4225 14.46 
432 1 7.23 5.4225 16.2675 
447 1 5.4225 7.23 16.2675 
449 1 7.23 7.23 14.46 
430 1 9.0375 5.4225 14.46 
434 1 12.6525 5.4225 14.46 
436 1 10.845 5.4225 16.2675 
451 1 9.0375 7.23 16.2675 
453 1 10.845 7.23 14.46 
455 1 12.6525 7.23 16.2675 
438 1 16.2675 5.4225 14.46 
440 1 14.46 5.4225 16.2675 
457 1 14.46 7.23 14.46 
459 1 16.2675 7.23 16.2675 
442 1 1.8075 9.0375 14.46 
444 1 0 9.0375 16.2675 
448 1 3.615 9.0375 16.2675 
461 1 0 10.845 14.46 
462 1 1.8075 12.6525 14.46 
463 1 1.8075 10.845 16.2675 
464 1 0 12.6525 16.2675 
465 1 3.615 10.845 14.46 
468 1 3.615 12.6525 16.2675 
446 1 5.4225 9.0375 14.46 
452 1 7.23 9.0375 16.2675 
466 1 5.4225 12.6525 14.46 
467 1 5.4225 10.845 16.2675 
469 1 7.23 10.845 14.46 
472 1 7.23 12.6525 16.2675 
450 1 9.0375 9.0375 14.46 
454 1 12.6525 9.0375 14.46 
456 1 10.845 9.0375 16.2675 
470 1 9.0375 12.6525 14.46 
471 1 9.0375 10.845 16.2675 
473 1 10.845 10.845 14.46 
474 1 12.6525 12.6525 14.46 
475 1 12.6525 10.845 16.2675 
476 1 10.845 12.6525 16.2675 
458 1 16.2675 9.0375 14.46 
460 1 14.46 9.0375 16.2675 
477 1 14.46 10.845 14.46 
478 1 16.2675 12.6525 14.46 
479 1 16.2675 10.845 16.2675 
480 1 14.46 12.6525 16.2675 
481 1 0 14.46 14.46 
482 1 1.8075 16.2675 14.46 
483 1 1.8075 14.46 16.2675 
484 1 0 16.2675 16.2675 
485 1 3.615 14.46 14.46 
488 1 3.615 16.2675 16.2675 
486 1 5.4225 16.2675 14.46 
487 1 5.4225 14.46 16.2675 
489 1 7.23 14.46 14.46 
492 1 7.23 16.2675 16.2675 
490 1 9.0375 16.2675 14.46 
491 1 9.0375 14.46 16.2675 
493 1 10.845 14.46 14.46 
494 1 12.6525 16.2675 14.46 
495 1 12.6525 14.46 16.2675 
496 1 10.845 16.2675 16.2675 
497 1 14.46 14.46 14.46 
498 1 16.2675 16.2675 14.46 
499 1 16.2675 14.46 16.2675 
500 1 14.46 16.2675 16.2675 
