ITEM: TIMESTEP
265000
ITEM: NUMBER OF ATOMS
500
ITEM: BOX BOUNDS pp pp pp
-1.5386000635428410e-01 1.8228860006354687e+01
-1.5386000635428410e-01 1.8228860006354687e+01
-1.5386000635428410e-01 1.8228860006354687e+01
ITEM: ATOMS id type x y z 
196 1 2.20401 3.1586 0.516789 
151 1 3.24114 1.82177 2.5738 
365 1 0.889681 1.81425 2.46197 
430 1 2.02682 0.482964 0.882742 
135 1 3.96324 1.51049 -0.0895137 
43 1 0.348754 3.26317 4.31865 
97 1 2.35985 4.10234 2.8483 
129 1 4.50962 3.26791 4.1129 
361 1 4.61647 3.58103 1.34606 
314 1 5.68512 1.58189 2.80475 
136 1 7.07631 3.1447 1.07271 
246 1 8.04255 1.27575 2.54572 
209 1 6.55151 0.797961 0.554532 
125 1 6.67537 3.97031 3.26957 
68 1 9.05851 3.35516 3.43411 
77 1 10.0568 0.537793 2.97958 
162 1 11.6244 2.75809 2.90969 
60 1 12.8426 1.81632 0.968622 
88 1 10.0139 2.09466 0.931269 
157 1 11.7922 4.08076 0.709836 
273 1 9.35586 4.42587 1.23328 
479 1 12.5432 0.00304075 2.98435 
149 1 13.8444 3.67471 1.98452 
315 1 17.7272 0.804128 0.523108 
393 1 14.386 1.64175 3.36987 
257 1 16.7472 2.74544 2.7644 
78 1 16.2409 0.270175 2.32512 
404 1 15.5658 2.08499 0.603915 
93 1 18.0298 3.36619 0.722378 
494 1 15.2237 4.34003 3.89508 
497 1 17.6442 0.567239 4.23926 
309 1 3.4421 5.72312 0.825573 
372 1 0.106439 8.03876 3.14531 
448 1 2.35427 6.87207 2.71147 
417 1 1.14712 7.88916 0.812294 
139 1 3.24682 8.44156 0.606835 
36 1 0.929257 5.47922 0.876455 
283 1 4.37404 8.77656 3.04177 
405 1 4.50325 5.71993 2.96364 
80 1 6.91466 5.44148 1.56323 
230 1 6.42522 7.03539 3.53017 
329 1 5.62768 7.40629 1.23278 
38 1 8.32401 8.59773 4.11784 
290 1 8.54499 7.55201 1.45812 
301 1 8.64545 6.01257 3.40772 
449 1 10.9911 6.3114 1.80982 
465 1 12.7683 7.84168 2.38014 
263 1 10.5191 8.30968 3.25413 
316 1 11.8577 7.86368 0.115118 
144 1 12.8349 5.38659 3.34132 
72 1 10.6778 5.04115 3.96599 
49 1 13.5356 5.93773 0.552025 
216 1 15.669 4.62565 1.00907 
181 1 17.6461 5.09098 2.96624 
185 1 14.7686 7.94666 0.703175 
366 1 15.1378 6.32903 2.51703 
487 1 16.1736 8.62387 2.47033 
259 1 17.1851 6.75549 1.09893 
427 1 17.4707 8.84674 0.0451081 
345 1 16.5666 6.93723 4.42802 
57 1 14.5335 8.48539 4.20897 
221 1 1.92947 12.6183 3.67908 
499 1 2.1776 9.57384 2.50045 
148 1 3.22406 11.4195 1.8035 
299 1 1.50337 11.0949 0.417298 
433 1 0.171068 12.708 1.75487 
445 1 0.704716 10.331 4.3791 
37 1 4.32896 13.2785 3.30436 
231 1 6.73586 9.22875 2.46916 
492 1 4.9071 13.1819 0.916798 
54 1 5.42152 11.2678 3.17198 
297 1 7.73484 11.0617 3.86444 
341 1 7.1553 11.546 0.984528 
118 1 4.99049 10.0981 0.779478 
69 1 7.12943 13.3312 2.49277 
477 1 9.00604 9.7751 1.90655 
247 1 7.13472 9.41344 -0.0837144 
262 1 12.3488 9.59266 3.97692 
90 1 11.4891 9.97265 1.36141 
175 1 10.1229 10.9423 4.18133 
486 1 11.3137 12.1852 0.212446 
261 1 12.2026 11.8213 2.88188 
275 1 9.56329 12.259 2.39943 
410 1 9.19257 13.5585 0.0624385 
200 1 9.36745 10.9816 -0.0844172 
412 1 13.7856 12.183 0.806365 
291 1 17.9493 12.4294 4.11194 
218 1 18.0998 10.2669 2.08939 
245 1 13.8972 10.1016 2.12934 
176 1 15.8937 10.4027 0.800387 
387 1 15.8536 11.9797 2.57241 
330 1 16.6052 13.0293 0.368046 
279 1 16.4788 10.2422 4.18208 
383 1 14.1901 11.482 4.36654 
371 1 2.64185 13.9949 1.37905 
461 1 0.78653 14.7367 3.12687 
126 1 2.64733 18.0104 3.35689 
425 1 2.99714 15.4476 3.44361 
178 1 2.29562 16.4055 1.3406 
145 1 0.347844 17.6399 2.32755 
305 1 4.33408 17.8918 1.30694 
441 1 -0.0437007 15.2426 0.976083 
296 1 5.06055 15.3871 2.02485 
171 1 6.60698 17.6232 2.43704 
389 1 7.86652 15.5662 1.449 
286 1 6.94187 15.2522 3.93575 
143 1 4.81846 17.3494 3.97977 
255 1 8.55986 17.3532 3.89286 
48 1 6.27684 16.7121 0.13847 
460 1 9.00947 17.9236 0.771869 
223 1 11.5344 18.1726 0.812187 
463 1 11.4131 13.9796 1.85324 
40 1 9.3931 14.6725 3.1148 
187 1 10.5275 16.5722 2.58335 
102 1 12.8183 16.0406 1.5328 
293 1 10.6318 15.6625 0.474235 
384 1 12.1837 15.4965 3.81133 
81 1 14.2369 18.0526 0.702968 
351 1 14.012 13.8319 3.07261 
170 1 16.9524 16.4909 3.5517 
101 1 15.0369 14.6037 1.01829 
226 1 14.4838 16.4846 2.96473 
103 1 16.6529 14.403 2.73755 
206 1 16.5494 16.6577 0.988557 
26 1 1.44403 0.910115 4.96803 
74 1 2.6724 3.04031 5.52051 
374 1 1.83775 2.84253 7.97864 
66 1 2.86529 0.984242 7.12838 
280 1 4.15263 1.01605 4.88299 
352 1 -0.0632483 2.31047 6.506 
154 1 0.623272 -0.04459 7.12602 
355 1 6.62281 2.80896 5.49544 
94 1 7.00795 1.17799 7.44708 
358 1 8.49465 3.06267 7.41806 
85 1 4.70798 2.60101 6.96909 
10 1 6.80684 0.504215 4.70232 
302 1 5.11374 0.00311653 6.74026 
63 1 4.63074 0.823765 8.9698 
402 1 8.93891 1.57282 5.16074 
281 1 8.88532 -0.0927542 8.97182 
142 1 13.1436 3.60787 4.67072 
337 1 11.7323 1.49508 4.9642 
306 1 10.371 3.37536 5.88126 
416 1 12.4482 2.70729 7.05631 
211 1 10.2607 1.26713 7.44474 
152 1 10.482 3.77204 8.66221 
208 1 12.5366 -0.00728321 6.8109 
110 1 18.0486 1.42724 8.91319 
482 1 14.0954 1.43831 5.899 
84 1 16.137 2.28078 5.05148 
419 1 14.1109 1.2394 8.43069 
443 1 14.4533 4.03628 6.36785 
474 1 16.241 0.773179 7.03547 
272 1 15.9636 2.96625 8.15702 
400 1 13.8746 4.30978 8.7929 
388 1 17.8576 4.17234 8.46708 
234 1 2.18139 8.30729 4.69865 
55 1 0.686339 6.28345 4.67364 
456 1 1.22557 4.68894 6.47741 
455 1 2.96492 5.37916 4.71608 
471 1 3.72854 4.80688 7.20018 
476 1 2.31047 6.96241 6.80758 
437 1 1.16021 7.94575 8.85257 
434 1 1.6763 5.41715 8.74282 
53 1 4.34261 7.18993 4.93408 
117 1 6.39483 4.54853 7.33958 
76 1 8.27977 4.73917 5.48705 
317 1 5.50483 5.15168 5.2603 
138 1 7.36222 6.6752 8.36493 
107 1 7.26677 7.07355 5.92755 
241 1 5.14442 6.89524 7.35501 
127 1 9.01553 8.45276 7.59718 
98 1 9.79004 6.92385 5.29488 
222 1 9.58089 5.66371 7.26053 
386 1 12.0061 5.2502 6.26299 
238 1 12.2517 7.34842 4.76214 
331 1 11.2859 7.41419 7.28206 
353 1 13.2029 8.90242 6.42426 
188 1 11.7196 5.77889 8.8353 
161 1 17.027 4.62055 5.68969 
133 1 18.0595 6.60555 7.14885 
472 1 13.7543 6.73332 7.76646 
217 1 18.0734 8.57901 5.64146 
169 1 15.8915 5.5552 7.50376 
108 1 14.4523 6.20543 5.33318 
3 1 15.7383 8.05545 6.56806 
380 1 14.8829 8.99945 8.75253 
83 1 3.45132 10.7212 4.64526 
454 1 4.15072 9.06557 6.41476 
490 1 3.43249 9.21072 8.57643 
25 1 1.61303 9.54917 6.74574 
164 1 3.64277 12.9365 5.59209 
322 1 1.40294 11.9454 5.96838 
233 1 3.46118 11.1764 7.21965 
119 1 0.900861 10.9144 8.28288 
51 1 2.23191 13.2221 7.84619 
360 1 6.49938 9.07543 7.45722 
439 1 6.04175 9.16793 4.89874 
396 1 8.63525 13.098 4.86556 
128 1 6.17057 13.0011 5.02089 
46 1 5.13437 13.2698 7.53397 
2 1 5.70719 11.1886 6.04692 
452 1 7.60114 12.7516 7.38578 
67 1 8.12318 10.2986 6.0167 
287 1 5.49967 10.7834 8.85675 
189 1 8.23547 10.6942 8.72847 
183 1 10.474 9.14648 5.59227 
406 1 9.88159 11.5825 6.55441 
243 1 12.345 11.2279 5.85077 
256 1 10.9355 10.0201 7.9986 
336 1 11.9208 13.1885 7.18817 
469 1 11.1627 13.2156 4.64582 
184 1 13.157 10.8065 8.27344 
199 1 10.277 12.2063 8.93653 
390 1 18.0736 13.3347 6.94344 
464 1 17.4372 9.14517 7.9681 
292 1 14.5144 12.652 7.47182 
298 1 15.0663 10.4418 6.35049 
264 1 17.4496 10.9981 6.33246 
89 1 16.5353 12.0125 8.43888 
123 1 15.8055 12.7695 5.28862 
21 1 0.756601 16.7215 4.75084 
114 1 1.69904 14.4957 5.45102 
18 1 2.9715 15.0862 7.17086 
9 1 2.99555 17.1718 5.7957 
163 1 0.417172 15.771 7.31043 
435 1 3.05384 17.2502 8.48754 
428 1 7.12356 14.8069 6.60121 
268 1 6.70411 17.3504 8.24191 
407 1 4.67588 15.1042 5.22363 
82 1 6.55844 16.8245 5.55929 
15 1 4.98899 16.0095 7.35494 
198 1 8.6329 15.9133 8.1079 
369 1 8.54207 17.8458 6.52895 
64 1 6.50072 14.8895 8.96238 
225 1 13.4668 13.887 5.56416 
446 1 9.13532 15.6283 5.52118 
204 1 9.67002 13.902 7.12553 
34 1 10.7358 17.5892 5.06917 
239 1 11.4426 15.3816 6.21138 
258 1 13.1923 16.7244 5.32824 
5 1 10.7767 17.0932 7.80076 
13 1 11.2503 14.911 8.73149 
328 1 15.2759 17.9912 4.84689 
109 1 13.6589 14.9781 7.74253 
496 1 17.6356 14.7972 5.19918 
420 1 14.7188 17.2767 7.1751 
488 1 17.1108 17.1218 5.98607 
120 1 15.2009 15.4528 5.11199 
214 1 16.1372 14.8038 7.4302 
414 1 17.0189 17.215 8.32104 
347 1 2.05639 1.14423 9.58539 
458 1 1.0156 3.26218 10.3606 
160 1 3.00082 2.52594 11.6823 
333 1 3.77953 3.29921 9.38353 
35 1 0.218532 0.736558 11.2656 
426 1 1.42876 3.97273 12.9956 
327 1 1.86402 1.05636 13.2196 
282 1 4.41182 1.22647 13.267 
236 1 3.44711 -0.103254 11.1157 
382 1 6.24506 2.94485 9.17413 
220 1 5.2655 1.90105 11.2426 
172 1 6.82477 0.401618 10.1643 
132 1 6.87109 0.821569 12.7751 
12 1 7.40419 3.39957 11.4715 
403 1 6.24252 3.06344 13.4873 
33 1 4.89677 4.19122 11.6132 
73 1 8.76669 2.11896 9.75105 
166 1 8.91475 2.27667 13.2282 
484 1 8.95221 0.0442469 11.6382 
50 1 12.2722 2.34182 9.5456 
75 1 10.6385 2.44222 11.6228 
192 1 13.1259 2.68656 12.209 
224 1 13.3754 0.666708 10.9507 
240 1 10.909 0.220683 9.9331 
498 1 10.9243 0.224424 13.345 
311 1 13.583 -0.0951471 13.2394 
334 1 18.1833 2.14394 13.4152 
4 1 15.8738 0.285336 9.79746 
359 1 16.9003 2.62782 10.9699 
357 1 14.753 2.83526 10.5727 
111 1 16.0015 0.675572 12.1647 
431 1 15.5104 2.98041 13.1696 
87 1 3.48855 6.87808 9.15333 
156 1 2.0296 7.50373 11.0275 
193 1 0.594842 6.50913 12.7649 
44 1 3.36219 8.64515 13.012 
436 1 2.58504 5.1089 11.0514 
289 1 0.11886 5.80689 10.2743 
137 1 3.04558 6.319 13.4053 
457 1 4.52981 6.82836 11.5345 
274 1 8.06103 4.72467 9.30704 
413 1 5.62033 8.09031 9.61081 
14 1 5.49167 5.3439 9.48501 
91 1 7.28052 6.16328 11.1943 
219 1 6.23798 8.40887 12.0821 
491 1 7.9305 8.49371 9.95346 
321 1 5.76139 5.58325 13.3393 
30 1 8.57201 5.07043 13.3435 
105 1 12.3389 4.49563 10.5903 
113 1 12.3336 8.32273 9.27156 
332 1 9.42572 7.20911 11.746 
475 1 11.4172 4.767 12.7493 
470 1 9.70614 4.76238 11.0386 
278 1 9.82351 6.9232 9.42629 
377 1 11.6958 6.90137 11.3938 
468 1 13.14 9.03686 11.3081 
313 1 17.5766 4.4665 12.4733 
115 1 14.4559 4.80742 11.9098 
418 1 14.2012 7.11348 12.5684 
493 1 16.5298 7.24825 9.10196 
56 1 18.0981 8.16864 10.9903 
61 1 16.0479 4.93898 9.95952 
323 1 14.1255 6.63732 10.1314 
338 1 16.5103 6.38942 11.6953 
140 1 16.9541 8.10984 13.3808 
362 1 15.6443 8.75247 11.122 
409 1 0.974204 9.19086 12.9047 
473 1 2.96183 11.7904 9.73115 
450 1 1.50736 9.90062 10.4869 
6 1 2.85903 11.2211 12.2373 
180 1 0.461942 11.5836 11.9169 
112 1 2.42997 13.3683 11.455 
300 1 0.499029 12.6671 9.67954 
249 1 4.03263 9.62922 10.8368 
28 1 4.06214 13.2859 13.3085 
349 1 6.81736 12.6574 9.83292 
253 1 4.83176 12.3055 10.9493 
167 1 6.76286 10.3857 10.9808 
480 1 7.06435 12.1721 12.439 
99 1 8.54725 9.60653 12.2164 
17 1 4.9864 10.5742 13.2576 
248 1 9.17572 11.6899 11.0619 
41 1 10.8462 9.5464 12.5511 
229 1 10.2395 9.35242 10.2544 
265 1 11.8311 11.0998 10.7239 
320 1 10.7706 12.2576 12.7757 
438 1 13.0354 10.9602 13.012 
432 1 12.6402 12.8799 9.39668 
58 1 13.1538 13.2359 11.8608 
150 1 14.8278 9.50787 13.265 
423 1 16.9005 10.3895 12.501 
254 1 17.3892 10.4338 10.1875 
147 1 14.5259 11.1202 10.4781 
489 1 16.8139 12.518 11.0557 
8 1 14.9989 12.2242 12.7578 
444 1 17.2519 13.1551 13.4958 
481 1 15.1135 13.6113 9.71937 
288 1 1.52265 15.1317 9.42646 
16 1 1.32197 16.7799 11.7174 
367 1 3.49677 15.6788 11.4172 
304 1 0.523688 17.3235 9.38881 
368 1 0.177139 14.2991 11.6064 
22 1 4.04209 14.2464 9.38547 
146 1 2.08989 15.0822 13.2485 
186 1 3.27869 17.3154 13.4977 
310 1 8.89377 14.0125 9.57728 
483 1 5.03479 16.6488 9.76909 
232 1 5.46318 17.3189 11.989 
378 1 7.62891 16.3785 10.5607 
124 1 5.9221 14.6619 11.3861 
319 1 8.58931 14.0809 12.1816 
478 1 7.34086 16.2808 13.1644 
500 1 10.9415 13.6933 10.8457 
158 1 13.121 17.4188 9.26864 
325 1 12.0188 17.0247 11.8497 
134 1 9.66415 16.3785 12.8715 
395 1 10.2034 16.2182 10.4463 
399 1 11.4434 14.8401 12.7671 
106 1 13.085 15.2501 10.6402 
197 1 13.7854 15.2947 13.3581 
65 1 17.5068 14.9305 9.61157 
350 1 15.3149 16.0939 9.4078 
343 1 17.1537 16.7823 11.1875 
442 1 14.7315 17.1308 11.34 
260 1 15.8398 14.8231 11.9005 
79 1 18.0664 17.984 13.3677 
269 1 15.7328 16.9296 13.514 
11 1 17.8585 15.6828 13.3969 
29 1 3.81467 3.9377 13.9955 
391 1 1.41896 1.62904 17.3753 
62 1 1.7076 2.73576 15.1842 
19 1 3.4014 3.84098 16.908 
70 1 0.146003 0.711307 15.5676 
104 1 2.67443 0.389719 15.4057 
277 1 0.756996 4.06819 17.0671 
271 1 4.29309 2.00498 15.6093 
45 1 6.92082 1.59823 15.3205 
227 1 5.94006 2.49254 17.4421 
237 1 5.67663 3.9056 15.733 
398 1 8.37056 1.94129 17.5993 
195 1 8.17086 3.62661 15.3849 
284 1 8.41748 -0.134271 14.2988 
168 1 5.19206 -0.127263 16.8546 
318 1 11.1222 1.32688 17.4492 
411 1 11.4597 2.48691 14.0649 
47 1 10.1418 3.64324 17.1456 
397 1 9.65281 1.53446 15.5579 
424 1 12.0316 0.294248 15.3893 
394 1 12.394 2.92447 16.3031 
356 1 13.4462 4.01429 14.3363 
7 1 13.8247 1.0042 17.1314 
440 1 13.9616 3.63557 17.9112 
429 1 13.9181 1.64931 14.7886 
251 1 17.7423 3.85563 14.8851 
373 1 17.3618 2.18989 16.908 
346 1 16.195 0.986131 14.7767 
203 1 15.288 3.17908 15.7645 
173 1 16.0532 0.0664178 17.3248 
86 1 1.24785 7.73455 14.7308 
31 1 1.59475 5.38382 15.161 
116 1 2.54647 6.53653 17.1186 
335 1 3.42395 8.25394 15.5423 
122 1 4.33288 5.87058 15.5185 
210 1 0.111487 6.73288 17.175 
96 1 7.90957 7.51127 13.7278 
415 1 7.68412 4.54104 17.607 
174 1 7.48695 6.85889 17.8345 
451 1 5.37358 5.34246 17.9136 
179 1 5.39565 7.90068 14.2893 
421 1 5.05431 7.83284 17.1554 
340 1 6.76998 5.92604 15.5161 
294 1 7.31174 8.42893 15.9954 
250 1 9.02399 6.39298 15.7336 
307 1 10.5145 7.21693 13.8503 
244 1 9.9412 6.14551 17.9824 
303 1 10.7709 4.62099 15.0089 
295 1 9.29361 8.53758 17.5242 
408 1 12.0124 5.44516 16.9379 
190 1 12.7486 6.28204 14.5981 
344 1 11.1579 7.60566 16.1391 
141 1 12.7134 8.53646 14.0563 
401 1 13.5547 7.65442 16.7208 
32 1 14.4736 5.44509 16.4305 
130 1 15.5163 5.25483 14.098 
194 1 17.4276 6.18097 14.9649 
215 1 16.0521 6.82735 17.244 
27 1 15.0375 7.62317 14.9158 
354 1 16.7081 4.55699 17.1391 
453 1 17.5506 8.70103 15.6868 
459 1 1.3185 9.16014 16.7767 
348 1 1.58496 12.7061 13.8423 
92 1 3.86192 11.9597 15.2934 
191 1 2.37707 10.1909 14.554 
326 1 3.39505 10.444 17.2266 
422 1 1.58626 11.8246 16.2411 
182 1 0.461784 13.2053 17.7221 
364 1 3.2068 12.8794 17.7078 
266 1 0.0531096 10.9911 14.5703 
467 1 7.10441 9.83659 14.0028 
95 1 6.32368 12.0347 14.7902 
42 1 5.27299 9.94831 15.8012 
267 1 5.64481 11.914 17.3237 
339 1 7.93461 10.8685 16.3421 
342 1 8.71176 11.7501 14.0853 
1 1 8.1244 13.4668 16.2364 
121 1 13.4508 9.88685 18.0222 
39 1 9.53774 9.21978 15.0171 
252 1 11.4871 10.9093 14.6802 
385 1 12.7028 12.2283 16.7135 
100 1 11.2177 9.9306 16.927 
52 1 10.153 12.1975 16.2683 
71 1 12.2813 13.1013 14.578 
131 1 13.7429 10.1512 15.5451 
177 1 15.5788 9.20348 17.0072 
202 1 14.6641 12.7225 14.9653 
375 1 15.2417 11.6145 17.0374 
205 1 16.0802 10.6462 14.8944 
312 1 17.6848 10.9084 17.3408 
270 1 17.0996 12.8072 15.9974 
363 1 4.06411 15.5125 18.0672 
212 1 2.69712 14.3158 15.4938 
213 1 2.67404 17.6744 17.4101 
59 1 1.67609 15.2156 17.5073 
165 1 1.17572 16.8095 15.1946 
20 1 3.72957 16.4917 15.6621 
379 1 0.379145 14.4234 15.2368 
155 1 0.211322 17.29 17.6068 
23 1 6.63975 14.1836 18.2033 
381 1 4.84063 15.4313 13.7491 
242 1 7.68601 17.9766 16.6466 
324 1 5.80924 17.6938 14.5452 
447 1 4.99029 13.9881 16.0883 
308 1 6.95663 14.1157 14.1295 
466 1 6.36545 15.9047 16.0887 
24 1 8.52816 15.7266 17.5731 
392 1 8.79951 15.9466 15.1969 
495 1 12.7945 14.3336 18.1449 
376 1 9.8614 13.9746 14.2638 
159 1 10.054 17.4185 16.5474 
228 1 12.4054 16.9077 17.2561 
485 1 11.6326 16.3948 14.5479 
153 1 10.7065 14.8322 16.4739 
370 1 13.214 14.8532 15.8128 
285 1 14.3262 17.4738 15.4804 
276 1 17.2406 15.0801 17.2529 
201 1 14.945 13.87 17.1781 
207 1 14.9223 16.2344 17.3565 
235 1 16.9761 17.1183 15.5098 
462 1 15.7493 14.8909 15.0285 
