Position data Generated by SPaMD
4	atoms
1	atom types
0.000000		3.520000	xlo xhi
0.000000		3.520000	ylo yhi
0.000000		3.520000	zlo zhi

Atoms

1	1	0.000000	0.000000	0.000000
2	1	1.760000	1.760000	0.000000
3	1	1.760000	0.000000	1.760000
4	1	0.000000	1.760000	1.760000
