Position data Generated by SPaMD
8	atoms
2	atom types
0.000000		5.940830	xlo xhi
0.000000		5.940830	ylo yhi
0.000000		5.940830	zlo zhi
0.000000		0.000000	0.000000	xy xz yz

Atoms

1	1	0.000000	0.000000	0.000000
2	1	0.000000	2.970415	2.970415
3	1	2.970415	0.000000	2.970415
4	1	2.970415	2.970415	0.000000
5	2	1.485208	1.485208	4.455628
6	2	1.485208	4.455628	1.485208
7	2	4.455628	1.485208	1.485208
8	2	4.455628	4.455628	4.455628
