Position data Generated by SPaMD
18	atoms
1	atom types
0.000000		2.469904	xlo xhi
0.000000		4.033337	ylo yhi
0.000000		20.957834	zlo zhi
0.000000		0.000000	0.000000	xy xz yz

Atoms

1	1	0.000000	0.000000	0.000000
2	1	1.646603	2.016669	5.821621
3	1	0.823301	2.016669	1.164324
4	1	0.823301	0.000000	4.657296
5	1	1.646603	0.000000	2.328648
6	1	0.000000	2.016669	3.492972
7	1	0.000000	0.000000	6.985945
8	1	0.823301	2.016669	12.807565
9	1	0.823301	2.016669	8.150269
10	1	1.646603	0.000000	11.643241
11	1	1.646603	0.000000	9.314593
12	1	0.000000	2.016669	10.478917
13	1	0.000000	0.000000	13.971889
14	1	0.823301	2.016669	19.793510
15	1	1.646603	2.016669	15.136214
16	1	1.646603	0.000000	18.629186
17	1	0.823301	0.000000	16.300538
18	1	0.000000	2.016669	17.464862
