Position data Generated by SPaMD
6	atoms
1	atom types
0.000000		2.472762	xlo xhi
0.000000		4.038004	ylo yhi
0.000000		6.994028	zlo zhi
0.000000		0.000000	0.000000	xy xz yz

Atoms

1	1	0.000000	0.000000	0.000000
2	1	0.824254	0.000000	2.331343
3	1	0.824254	2.019002	5.828357
4	1	1.648508	0.000000	4.662685
5	1	0.000000	2.019002	3.497014
6	1	1.648508	2.019002	1.165671
