Position data Generated by SPaMD
18	atoms
1	atom types
0.000000		2.472762	xlo xhi
0.000000		4.038004	ylo yhi
0.000000		20.982084	zlo zhi
0.000000		0.000000	0.000000	xy xz yz

Atoms

1	1	0.000000	0.000000	0.000000
2	1	1.648508	0.000000	2.331343
3	1	1.648508	2.019002	5.828357
4	1	0.824254	0.000000	4.662685
5	1	2.472762	2.019002	3.497014
6	1	0.824254	2.019002	1.165671
7	1	0.000000	0.000000	6.994028
8	1	1.648508	0.000000	9.325371
9	1	0.824254	2.019002	12.822385
10	1	1.648508	0.000000	11.656713
11	1	0.000000	2.019002	10.491042
12	1	0.824254	2.019002	8.159699
13	1	0.000000	0.000000	13.988056
14	1	0.824254	0.000000	16.319399
15	1	0.824254	2.019002	19.816413
16	1	1.648508	0.000000	18.650742
17	1	0.000000	2.019002	17.485070
18	1	1.648508	2.019002	15.153727
