Kikuchi_sphere_radius
39.84063745
Kikuchi_line_intensity
116
-1.39175552	-0.80353039	-0.49205988	3467.98789744
-1.39175552	-0.80353039	0.00000000	4011.79796426
-1.39175552	-0.80353039	0.49205988	3467.98789744
-1.39175552	0.00000000	-0.49205988	5247.28656023
-1.39175552	0.00000000	0.00000000	6284.14391130
-1.39175552	0.00000000	0.49205988	5247.28656023
-1.39175552	0.80353039	-0.49205988	3467.98789744
-1.39175552	0.80353039	0.00000000	4011.79796426
-1.39175552	0.80353039	0.49205988	3467.98789744
-0.92783701	-0.80353039	-0.82009979	5247.28679730
-0.92783701	-0.80353039	-0.32803992	8226.13093423
-0.92783701	-0.80353039	0.16401996	8852.93630375
-0.92783701	-0.80353039	0.65607983	6284.14422233
-0.92783701	-0.80353039	1.14813971	3467.98795637
-0.92783701	0.00000000	-1.31215967	4011.79795177
-0.92783701	0.00000000	-0.82009979	8852.93602291
-0.92783701	0.00000000	-0.32803992	16219.17799725
-0.92783701	0.00000000	0.16401996	17990.95130829
-0.92783701	0.00000000	0.65607983	11229.74955801
-0.92783701	0.00000000	1.14813971	5247.28666944
-0.92783701	0.80353039	-0.82009979	5247.28679730
-0.92783701	0.80353039	-0.32803992	8226.13093423
-0.92783701	0.80353039	0.16401996	8852.93630375
-0.92783701	0.80353039	0.65607983	6284.14422233
-0.92783701	0.80353039	1.14813971	3467.98795637
-0.46391851	-1.60706078	-0.16401996	3467.98819871
-0.46391851	-0.80353039	-1.14813971	5247.28686283
-0.46391851	-0.80353039	-0.65607983	11229.75016376
-0.46391851	-0.80353039	-0.16401996	17990.95253857
-0.46391851	-0.80353039	0.32803992	16219.17904713
-0.46391851	-0.80353039	0.82009979	8852.93644768
-0.46391851	-0.80353039	1.31215967	4011.79808122
-0.46391851	0.00000000	-1.14813971	8852.93616683
-0.46391851	0.00000000	-0.65607983	25636.71054248
-0.46391851	0.00000000	-0.16401996	65613.67318855
-0.46391851	0.00000000	0.32803992	50748.01264678
-0.46391851	0.00000000	0.82009979	17990.95172514
-0.46391851	0.00000000	1.31215967	6284.14414054
-0.46391851	0.80353039	-1.14813971	5247.28686283
-0.46391851	0.80353039	-0.65607983	11229.75016376
-0.46391851	0.80353039	-0.16401996	17990.95253857
-0.46391851	0.80353039	0.32803992	16219.17904713
-0.46391851	0.80353039	0.82009979	8852.93644768
-0.46391851	0.80353039	1.31215967	4011.79808122
-0.46391851	1.60706078	-0.16401996	3467.98819871
0.00000000	-1.60706078	-0.49205988	3467.98821050
0.00000000	-1.60706078	0.00000000	4011.79835260
0.00000000	-1.60706078	0.49205988	3467.98821050
0.00000000	-0.80353039	-1.47617963	3467.98800351
0.00000000	-0.80353039	-0.98411975	8226.13110613
0.00000000	-0.80353039	-0.49205988	17990.95267752
0.00000000	-0.80353039	0.00000000	25636.71222857
0.00000000	-0.80353039	0.49205988	17990.95267752
0.00000000	-0.80353039	0.98411975	8226.13110613
0.00000000	-0.80353039	1.47617963	3467.98800351
0.00000000	0.00000000	-1.47617963	5247.28675681
0.00000000	0.00000000	-0.98411975	16219.17847155
0.00000000	0.00000000	-0.49205988	65613.67455823
0.00000000	0.00000000	0.49205988	65613.67455823
0.00000000	0.00000000	0.98411975	16219.17847155
0.00000000	0.00000000	1.47617963	5247.28675681
0.00000000	0.80353039	-1.47617963	3467.98800351
0.00000000	0.80353039	-0.98411975	8226.13110613
0.00000000	0.80353039	-0.49205988	17990.95267752
0.00000000	0.80353039	0.00000000	25636.71222857
0.00000000	0.80353039	0.49205988	17990.95267752
0.00000000	0.80353039	0.98411975	8226.13110613
0.00000000	0.80353039	1.47617963	3467.98800351
0.00000000	1.60706078	-0.49205988	3467.98821050
0.00000000	1.60706078	0.00000000	4011.79835260
0.00000000	1.60706078	0.49205988	3467.98821050
0.46391851	-1.60706078	0.16401996	3467.98819871
0.46391851	-0.80353039	-1.31215967	4011.79808122
0.46391851	-0.80353039	-0.82009979	8852.93644768
0.46391851	-0.80353039	-0.32803992	16219.17904713
0.46391851	-0.80353039	0.16401996	17990.95253857
0.46391851	-0.80353039	0.65607983	11229.75016376
0.46391851	-0.80353039	1.14813971	5247.28686283
0.46391851	0.00000000	-1.31215967	6284.14414054
0.46391851	0.00000000	-0.82009979	17990.95172514
0.46391851	0.00000000	-0.32803992	50748.01264678
0.46391851	0.00000000	0.16401996	65613.67318855
0.46391851	0.00000000	0.65607983	25636.71054248
0.46391851	0.00000000	1.14813971	8852.93616683
0.46391851	0.80353039	-1.31215967	4011.79808122
0.46391851	0.80353039	-0.82009979	8852.93644768
0.46391851	0.80353039	-0.32803992	16219.17904713
0.46391851	0.80353039	0.16401996	17990.95253857
0.46391851	0.80353039	0.65607983	11229.75016376
0.46391851	0.80353039	1.14813971	5247.28686283
0.46391851	1.60706078	0.16401996	3467.98819871
0.92783701	-0.80353039	-1.14813971	3467.98795637
0.92783701	-0.80353039	-0.65607983	6284.14422233
0.92783701	-0.80353039	-0.16401996	8852.93630375
0.92783701	-0.80353039	0.32803992	8226.13093423
0.92783701	-0.80353039	0.82009979	5247.28679730
0.92783701	0.00000000	-1.14813971	5247.28666944
0.92783701	0.00000000	-0.65607983	11229.74955801
0.92783701	0.00000000	-0.16401996	17990.95130829
0.92783701	0.00000000	0.32803992	16219.17799725
0.92783701	0.00000000	0.82009979	8852.93602291
0.92783701	0.00000000	1.31215967	4011.79795177
0.92783701	0.80353039	-1.14813971	3467.98795637
0.92783701	0.80353039	-0.65607983	6284.14422233
0.92783701	0.80353039	-0.16401996	8852.93630375
0.92783701	0.80353039	0.32803992	8226.13093423
0.92783701	0.80353039	0.82009979	5247.28679730
1.39175552	-0.80353039	-0.49205988	3467.98789744
1.39175552	-0.80353039	0.00000000	4011.79796426
1.39175552	-0.80353039	0.49205988	3467.98789744
1.39175552	0.00000000	-0.49205988	5247.28656023
1.39175552	0.00000000	0.00000000	6284.14391130
1.39175552	0.00000000	0.49205988	5247.28656023
1.39175552	0.80353039	-0.49205988	3467.98789744
1.39175552	0.80353039	0.00000000	4011.79796426
1.39175552	0.80353039	0.49205988	3467.98789744
