 # File generated with Atomsk by 15743 on 2024-08-10 21:59:36
  
        7500  atoms
           1  atom types
 
      0.000000000000      21.555510000000  xlo xhi
      0.000000000000      62.225400000000  ylo yhi
      0.000000000000      60.968190000000  zlo zhi
 
Masses
 
            1   1.00800000              # H
 
Atoms # atomic
 
         1    1       -0.038074575089      -0.047197343646      -0.033220957049
         2    1        0.668726286710       1.181223523692       4.024318172102
         3    1        2.119882882048       1.202463541728      -0.030481656272
         4    1        2.831634182273      -0.051544410090       4.032324514812
         5    1        1.396699832650      -0.049868057814       1.999094517457
         6    1        3.554910998139       1.201526427204       2.002811138319
         7    1       -0.055495091605      -0.072384318804       6.055161874501
         8    1        0.644834806091       1.146839012160      10.112803430210
         9    1        2.102742156051       1.177345636764       6.056938487557
        10    1        2.812886061895      -0.080100890658      10.122147415010
        11    1        1.378428735709      -0.077066157900       8.087995578621
        12    1        3.537131366826       1.175106144618       8.090901322557
        13    1       -0.079558800749      -0.107066890002      12.146784555667
        14    1        0.613517021167       1.102761650070      16.208481715375
        15    1        2.077868606397       1.140357614496      12.146575434775
        16    1        2.788520144501      -0.117699344100      16.217433674713
        17    1        1.353805661081      -0.113830168728      14.181236965232
        18    1        3.512009066586       1.136700005484      14.182220382137
        19    1       -0.108033629459      -0.147093378552      18.247281766570
        20    1        0.581440913401       1.059457749702      22.317919301660
        21    1        2.046564401444       1.094598299844      18.245043624315
        22    1        2.763358397678      -0.156028945992      22.324022827161
        23    1        1.326291130341      -0.154063867860      20.284763685496
        24    1        3.482188742942       1.091424182190      20.283791852547
        25    1       -0.132915801317      -0.180864347640      24.360709111208
        26    1        0.562088160968       1.034333622198      28.441313725999
        27    1        2.017560816074       1.053734879664      24.358395978079
        28    1        2.747935430273      -0.179030565102      28.442933041125
        29    1        1.305414187796      -0.183693736578      26.401434537842
        30    1        3.458276137923       1.056085755276      26.400390762429
        31    1       -0.143039777699      -0.194257120482      30.484095000000
        32    1        0.566250745504       1.039672561518      34.569135660296
        33    1        2.005334315247       1.037024248494      30.484095000000
        34    1        2.751272223221      -0.174091112850      34.565929952866
        35    1        1.301965952861      -0.188505004506      32.525661177974
        36    1        3.454218744276       1.050198610182      32.526242204825
        37    1       -0.132915801317      -0.180864347640      36.607480888793
        38    1        0.591461638890       1.072767762762      40.688502526004
        39    1        2.017560816074       1.053734879664      36.609794021921
        40    1        2.771263234305      -0.144081669192      40.681197927160
        41    1        1.317991612326      -0.165944563482      38.645915130847
        42    1        3.472816622749       1.077449601858      38.647182659517
        43    1       -0.108033629459      -0.147093378552      42.720908233430
        44    1        0.624543742307       1.118099588916      46.792859633015
        45    1        2.046564401444       1.094598299844      42.723146375685
        46    1        2.797102039697      -0.104470846314      46.783511380442
        47    1        1.344604476082      -0.127416462564      44.753859606158
        48    1        3.502248084993       1.121777110056      44.753624268944
        49    1       -0.079558800749      -0.107066890002      48.821405444333
        50    1        0.653726453966       1.159597708176      52.885328552659
        51    1        2.077868606397       1.140357614496      48.821614565225
        52    1        2.819828229446      -0.069436701606      52.876302821811
        53    1        1.370872882788      -0.088383091398      50.849879313187
        54    1        3.529571633914       1.163601290412      50.847509479642
        55    1       -0.055495091605      -0.072384318804      54.913028125499
        56    1        0.674895904782       1.190101843764      58.972880387779
        57    1        2.102742156051       1.177345636764      54.911251512443
        58    1        2.836545174116      -0.044257193496      58.965481897922
        59    1        1.391325828452      -0.057812374632      56.939629661238
        60    1        3.549750824600       1.193995287042      56.936056925304
        61    1       -0.041000735571       2.438767744992      -0.036990010555
        62    1        0.663587884236       3.664647326994       4.018746289217
        63    1        2.117347522962       3.688588549644      -0.034082437574
        64    1        2.827307560305       2.432125805796       4.027246474267
        65    1        1.393095966933       2.435024887182       1.994648107360
        66    1        3.551814549128       3.686732988216       1.998664691717
        67    1       -0.062184628579       2.409353176158       6.048827279560
        68    1        0.633297434918       3.623198988054      10.104066078901
        69    1        2.096396213907       3.658833607872       6.050370994130
        70    1        2.803259371129       2.396664794844      10.113947803137
        71    1        1.370295195120       2.402343484848       8.080663544092
        72    1        3.529515805143       3.654388847550       8.083438816101
        73    1       -0.093140065379       2.367171199752      12.137920390523
        74    1        0.591233366039       3.568168088802      16.197950679917
        75    1        2.063759447326       3.612639959928      12.136562019250
        76    1        2.769598071158       2.347426458078      16.206931903986
        77    1        1.337519611055       2.356085744742      14.171382067001
        78    1        3.495297726348       3.604359625950      14.171202210840
        79    1       -0.131596604105       2.317115221230      18.237976801412
        80    1        0.546501802797       3.513516764490      22.309595314679
        81    1        2.019817677971       3.553156211052      18.233736463797
        82    1        2.732537251705       2.295383000280      22.315025751362
        83    1        1.298800741773       2.303867433570      20.275289838452
        84    1        3.451302499328       3.542494511016      20.272313981098
        85    1       -0.166201388749       2.274563003694      24.354701305765
        86    1        0.519191833848       3.482139606540      28.438961573229
        87    1        1.977257832361       3.499357996974      24.350802390014
        88    1        2.708943021569       2.263743251142      28.440241295537
        89    1        1.268426441522       2.265058073844      26.396709503117
        90    1        3.414076349113       3.493313421618      26.394412221718
        91    1       -0.180421774251       2.257767745980      30.484095000000
        92    1        0.525069590315       3.488766611640      34.573735100549
        93    1        1.959030924216       3.477510036780      30.484095000000
        94    1        2.714093495128       2.270546354124      34.571126271699
        95    1        1.263354430019       2.258767085904      32.528095028119
        96    1        3.407638149386       3.485123936724      32.529338779195
        97    1       -0.166201388749       2.274563003694      36.613488694235
        98    1        0.560584664146       3.530284020774      40.698077580243
        99    1        1.977257832361       3.499357996974      36.617387609986
       100    1        2.744393859980       2.311733968638      40.691271701193
       101    1        1.286804669348       2.288307972300      38.654262285739
       102    1        3.436878845367       3.523072096914      38.657491770764
       103    1       -0.131596604105       2.317115221230      42.730213198588
       104    1        0.606284285342       3.587466674358      46.803132163348
       105    1        2.019817677971       3.553156211052      42.734453536203
       106    1        2.781734038843       2.365013845134      46.793516260421
       107    1        1.324780089090       2.338579250706      44.764042513252
       108    1        3.481255820469       3.584221619748      44.765351500291
       109    1       -0.093140065379       2.367171199752      48.830269609477
       110    1        0.644788461744       3.638784583992      52.893027006010
       111    1        2.063759447326       3.612639959928      48.831627980750
       112    1        2.812368298545       2.410141571976      52.883433051631
       113    1        1.360463942564       2.388316635180      50.858199642076
       114    1        3.519532801796       3.639724809786      50.856246221269
       115    1       -0.062184628579       2.409353176158      54.919362720440
       116    1        0.671077777295       3.675015945396      58.977488363579
       117    1        2.096396213907       3.658833607872      54.917819005870
       118    1        2.833304303187       2.440821805446      58.969666754484
       119    1        1.386542876338       2.425649386164      56.944972303728
       120    1        3.545520986873       3.677725239312      56.941180691992
       121    1       -0.043848218442       4.924994180310      -0.040729799330
       122    1        0.658266691037       6.148201803636       4.013034179496
       123    1        2.114933952507       6.174932590968      -0.037661270327
       124    1        2.822675281206       4.915606856466       4.021720317526
       125    1        1.389410190278       4.920015526056       1.990029766967
       126    1        3.548705166810       6.171974395452       1.994326804999
       127    1       -0.069430944375       4.891005422322       6.042120778660
       128    1        0.620137364953       6.098855816928      10.094689171279
       129    1        2.089460513009       6.140019163536       6.043288929180
       130    1        2.791739028809       4.871808264168      10.104397745855
       131    1        1.361040552457       4.881086693562       8.072539532774
       132    1        3.520737323695       6.132626163762       8.074944118188
       133    1       -0.109003627409       4.840361413770      12.128244129088
       134    1        0.564375200579       6.031641806610      16.186848982200
       135    1        2.046692872284       6.082914913956      12.125268881416
       136    1        2.744844370139       4.807815662808      16.194307220882
       137    1        1.317443455706       4.823534421102      14.160137094037
       138    1        3.473741354128       6.067828987980      14.158032472118
       139    1       -0.160249912438       4.779233669826      18.228037157396
       140    1        0.504187690002       5.965888226430      22.301673717752
       141    1        1.985447417276       6.007353366228      18.221306878902
       142    1        2.690091650298       4.738824495066      22.304471547992
       143    1        1.263394738822       4.757449801794      20.264760022357
       144    1        3.408477952056       5.985082273314      20.258948534486
       145    1       -0.206873402792       4.728005987022      24.348701426187
       146    1        0.468191066078       5.929761403698      28.436963035960
       147    1        1.925050171586       5.940443638116      24.343309399463
       148    1        2.654502209958       4.697490650862      28.437226418541
       149    1        1.220402274127       4.709157913362      26.391774737818
       150    1        3.351701816492       5.920725653364      26.388086772005
       151    1       -0.225866609319       4.708293602556      30.484095000000
       152    1        0.475849523225       5.937253341858      34.577756562362
       153    1        1.899600658705       5.914435909932      30.484095000000
       154    1        2.662281377962       4.706290566930      34.577019456945
       155    1        1.213251880350       4.701486143796      32.530601430410
       156    1        3.341935446021       5.910362012994      32.532535341397
       157    1       -0.206873402792       4.728005987022      36.619488573813
       158    1        0.523062341223       5.985772353000      40.707581301700
       159    1        1.925050171586       5.940443638116      36.624880600537
       160    1        2.707838086126       4.760470222710      40.703256827984
       161    1        1.246409859163       4.737924715782      38.663355691278
       162    1        3.386493702962       5.959324068984      38.669156814557
       163    1       -0.160249912438       4.779233669826      42.740152842604
       164    1        0.584558702368       6.055258212672      46.814126557051
       165    1        1.985447417276       6.007353366228      42.746883121098
       166    1        2.762153229114       4.830956044560      46.805485535482
       167    1        1.299868170628       4.801384045464      44.775637443626
       168    1        3.453352428329       6.040982461404      44.779391255084
       169    1       -0.109003627409       4.840361413770      48.839945870912
       170    1        0.634876160471       6.117636064902      52.901207108062
       171    1        2.046692872284       6.082914913956      48.842921118584
       172    1        2.803748250096       4.888751618334      52.891574134042
       173    1        1.348261368353       4.863860836080      50.867556430195
       174    1        3.507485211702       6.114025747194      50.866412057269
       175    1       -0.069430944375       4.891005422322      54.926069221340
       176    1        0.667283576425       6.160172726088      58.982098778107
       177    1        2.089460513009       6.140019163536      54.924901070820
       178    1        2.829977856884       4.925907026928      58.974099751579
       179    1        1.381458578194       4.909053899592      56.950659416491
       180    1        3.541056840752       6.161285316240      56.946707458415
       181    1       -0.046422593001       7.411636903554      -0.044190963476
       182    1        0.653075262009       8.632155145092       4.007589720129
       183    1        2.112832936947       8.661642517644      -0.040962697815
       184    1        2.817896209084       7.399084173612       4.015979552755
       185    1        1.385836502275       7.405291157262       1.985498001405
       186    1        3.545770815234       8.657414301714       1.990048057424
       187    1       -0.076941961835       7.372894747260       6.035448419946
       188    1        0.605835068513       8.574393795288      10.085472609997
       189    1        2.082194797254       8.621190407358       6.036108705444
       190    1        2.778207341852       7.345502503926      10.093805132524
       191    1        1.350841778456       7.359483929052       8.064021666950
       192    1        3.510876108980       8.610007880724       8.065761089410
       193    1       -0.126739932147       7.313208765834      12.118545919105
       194    1        0.534338244059       8.494987340094      16.177069684524
       195    1        2.026798645439       8.551761795054      12.113609324760
       196    1        2.713213814765       7.263926249034      16.180502193621
       197    1        1.293559519516       7.289255098104      14.148408033645
       198    1        3.446532480520       8.527318413426      14.143647027688
       199    1       -0.192713372718       7.241271847656      18.219065078556
       200    1        0.459780968296       8.421421983198      22.296924905433
       201    1        1.944458537235       8.459766519186      18.210335043430
       202    1        2.635229644022       7.177658821236      22.294648353219
       203    1        1.220885548661       7.209448533588      20.255177042253
       204    1        3.353066064719       8.422499727126      20.247050592208
       205    1       -0.251048402766       7.183857715584      24.344413533384
       206    1        0.418891243601       8.384466940392      28.436332015194
       207    1        1.867307702509       8.384671039704      24.339255624510
       208    1        2.586389600574       7.129762686348      28.434980350422
       209    1        1.165127048724       7.154771696862      26.388273334667
       210    1        3.276810861433       8.349541690134      26.384841435251
       211    1       -0.273721565960       7.162973626836      30.484095000000
       212    1        0.427283450310       8.391880474548      34.579309422161
       213    1        1.837725567250       8.358355295790      30.484095000000
       214    1        2.596826562961       7.139617322946      34.581682304116
       215    1        1.156219665327       7.146529942632      32.532273178180
       216    1        3.264750769143       8.338937237466      32.533897980443
       217    1       -0.251048402766       7.183857715584      36.623776466616
       218    1        0.482505649158       8.442941393280      40.714321335105
       219    1        1.867307702509       8.384671039704      36.628934375490
       220    1        2.660363153127       7.204110838776      40.715238296682
       221    1        1.198475147135       7.186820266878      38.671006589441
       222    1        3.322499273764       8.391986879982      38.678113651349
       223    1       -0.192713372718       7.241271847656      42.749124921444
       224    1        0.560241715982       8.522678265348      46.824404574521
       225    1        1.944458537235       8.459766519186      42.757854956570
       226    1        2.737660134211       7.293576029880      46.818813181816
       227    1        1.269892431757       7.262149713864      44.787396988113
       228    1        3.417363348833       8.492663843658      44.794202257481
       229    1       -0.126739932147       7.313208765834      48.849644080895
       230    1        0.624401044831       8.596592084484      52.909251860733
       231    1        2.026798645439       8.551761795054      48.854580675240
       232    1        2.794009686233       7.366588825224      52.900459638053
       233    1        1.334382206575       7.338639664560      50.877454006160
       234    1        3.493324319408       8.586657799374      50.877587526496
       235    1       -0.076941961835       7.372894747260      54.932741580054
       236    1        0.663777357169       8.645780018676      58.986372038544
       237    1        2.082194797254       8.621190407358      54.932081294556
       238    1        2.826727285976       7.411158390228      58.978564452132
       239    1        1.376281160247       7.392628288362      56.956394084443
       240    1        3.536553894713       8.644867172058      56.952357380583
       241    1       -0.048453984264       9.898850855970      -0.047033300494
       242    1        0.648516918309      11.116799810742       4.003009789696
       243    1        2.111308100170      11.148866426124      -0.043631275492
       244    1        2.813268241087       9.882802303056       4.010440592694
       245    1        1.382676033399       9.891060235890       1.981444836133
       246    1        3.543300984898      11.143244361234       1.986220474456
       247    1       -0.084169739893       9.855406326198       6.029454027505
       248    1        0.591592265281      11.050580162316      10.077758914598
       249    1        2.075129978851      11.102719447230       6.029543650745
       250    1        2.762944962996       9.818192425728      10.083032663033
       251    1        1.340222672009       9.838008726612       8.055879365175
       252    1        3.500340853468      11.086889305470       8.056676829100
       253    1       -0.145047457900       9.786714462630      12.110238393535
       254    1        0.505465500635      10.960591033344      16.171681925573
       255    1        2.005334315247      11.020242790800      12.103496531085
       256    1        2.675672954104       9.717801698892      16.168408543452
       257    1        1.267238732921       9.754704472362      14.138197690865
       258    1        3.414461761632      10.984143969498      14.130845536833
       259    1       -0.224622425282       9.706028653212      18.213755968570
       260    1        0.425885144376      10.884572128926      22.298716150856
       261    1        1.903601145806      10.914840430248      18.205705119081
       262    1        2.576927162794       9.620518508532      22.291085981877
       263    1        1.177631400075       9.664749567360      20.250448349436
       264    1        3.295777123572      10.863413626164      20.244505170275
       265    1       -0.288384701637       9.646945635912      24.344187341399
       266    1        0.390161844318      10.850303978892      28.437953769048
       267    1        1.824803901225      10.840320535716      24.343013703742
       268    1        2.525234032043       9.574663989018      28.435615638961
       269    1        1.117695011189       9.610184736354      26.388773273824
       270    1        3.223452567534      10.795688745312      26.389905453113
       271    1       -0.310505181554       9.627106311630      30.484095000000
       272    1        0.396931783344      10.856964585708      34.576596947388
       273    1        1.801354955227      10.817338828734      30.484095000000
       274    1        2.535414052751       9.583527374994      34.581178097185
       275    1        1.109145664813       9.602604438126      32.531761045384
       276    1        3.214893090068      10.787099773350      32.530767873569
       277    1       -0.288384701637       9.646945635912      36.624002658601
       278    1        0.448433285612      10.905781656516      40.714612763053
       279    1        1.824803901225      10.840320535716      36.625176296258
       280    1        2.607067585762       9.648633188760      40.722149650701
       281    1        1.152323938004       9.641306770164      38.673255096288
       282    1        3.263295556663      10.833192616146      38.676057194301
       283    1       -0.224622425282       9.706028653212      42.754434031429
       284    1        0.536086180365      10.991377672248      46.831536023705
       285    1        1.903601145806      10.914840430248      42.762484880919
       286    1        2.708641459984       9.753972701658      46.831575043347
       287    1        1.237180867556       9.723166772880      44.796608062258
       288    1        3.375368688696      10.942014884682      44.805372239571
       289    1       -0.145047457900       9.786714462630      48.857951606465
       290    1        0.614230939658      11.076198981750      52.916160776024
       291    1        2.005334315247      11.020242790800      48.864693468915
       292    1        2.783470335173       9.844007877426      52.909453055760
       293    1        1.319473338083       9.813297775764      50.886860788195
       294    1        3.477444159636      11.058061522158      50.888658130436
       295    1       -0.084169739893       9.855406326198      54.938735972495
       296    1        0.660946687595      11.132048767266      58.989835031736
       297    1        2.075129978851      11.102719447230      54.938646349255
       298    1        2.823808885477       9.896769416340      58.982713947144
       299    1        1.371378575053       9.876649455504      56.961697097609
       300    1        3.532360485797      11.128718463858      56.957647590429
       301    1       -0.049593624077      12.386764221882      -0.048837349236
       302    1        0.645315709519      13.602396525012       4.000061368028
       303    1        2.110699157012      13.636728767208      -0.045225593660
       304    1        2.809284136174      12.367042503606       4.005741774290
       305    1        1.380360109405      12.377528105760       1.978398255679
       306    1        3.541707386044      13.629655605990       1.983387892349
       307    1       -0.090239124844      12.338922845346       6.025019811047
       308    1        0.579592743974      13.528145444208      10.073348475734
       309    1        2.069175269214      13.585003281204       6.024629614631
       310    1        2.747077520975      12.290601088722      10.073753914197
       311    1        1.330250661973      12.317222359350       8.049317358885
       312    1        3.490133457263      13.563765752184       8.049074705489
       313    1       -0.161333292371      12.261908334528      12.105286557143
       314    1        0.485475136216      13.429952518500      16.173849344728
       315    1        1.985538597083      13.489632899640      12.097875873649
       316    1        2.638478274934      12.173009394564      16.163448781196
       317    1        1.242402689854      12.221723793462      14.132672753488
       318    1        3.382522315800      13.440701956350      14.124916380356
       319    1       -0.247928673804      12.175493432532      18.215018010104
       320    1        0.417534539802      13.354092911106      22.307997948101
       321    1        1.877330799104      13.375576852710      18.212357967974
       322    1        2.540980978763      12.074745531900      22.299826991277
       323    1        1.147720758844      12.127108206000      20.254817939614
       324    1        3.265762153673      13.313939482740      20.258767458962
       325    1       -0.304558663010      12.117806130954      24.349331227590
       326    1        0.396975972140      13.321265279082      28.441445417289
       327    1        1.822522681602      13.304074890078      24.354778735366
       328    1        2.509396767736      12.034700375730      28.440077900788
       329    1        1.101250097055      12.076314856488      26.394496357820
       330    1        3.234141513833      13.251440913234      26.402200907990
       331    1       -0.320320914143      12.099429103572      30.484095000000
       332    1        0.400227836378      13.327671384012      34.570066644557
       333    1        1.814121421580      13.282188972390      30.484095000000
       334    1        2.514285557404      12.042277562688      34.573178460975
       335    1        1.096125921218      12.069545977476      32.528577286502
       336    1        3.233569861708      13.243110798936      32.524280248471
       337    1       -0.304558663010      12.117806130954      36.618858772410
       338    1        0.434140258041      13.374618581550      40.706393031677
       339    1        1.822522681602      13.304074890078      36.613411264634
       340    1        2.566274214197      12.101041363686      40.716956989958
       341    1        1.126039580221      12.104733196668      38.666686383498
       342    1        3.246673456237      13.286079926652      38.658666627785
       343    1       -0.247928673804      12.175493432532      42.753171989897
       344    1        0.517278135670      13.462681212138      46.832623086533
       345    1        1.877330799104      13.375576852710      42.755832032026
       346    1        2.678344975124      12.214210076412      46.839925856331
       347    1        1.208149260023      12.187092869346      44.799294930391
       348    1        3.337609686274      13.393314825234      44.805455156309
       349    1       -0.161333292371      12.261908334528      48.862903442857
       350    1        0.605832697407      13.556977583298      52.920587676299
       351    1        1.985538597083      13.489632899640      48.870314126351
       352    1        2.772947797412      12.321513422934      52.917401478690
       353    1        1.305080077391      12.288642855384      50.894108076940
       354    1        3.461301453752      13.528958107932      50.897521076217
       355    1       -0.090239124844      12.338922845346      54.943170188954
       356    1        0.659309762166      13.619154447486      58.991899414649
       357    1        2.069175269214      13.585003281204      54.943560385370
       358    1        2.821600523478      12.382942337814      58.986053174910
       359    1        1.367328510279      12.361409238144      56.965885612262
       360    1        3.529033608384      13.613110494384      56.961856834267
       361    1       -0.049430233312      14.875441715706      -0.049139751458
       362    1        0.644389038144      16.089092762100       3.999593742011
       363    1        2.111403375524      16.125290521788      -0.045251809982
       364    1        2.806671392807      14.852067988704       4.002738481251
       365    1        1.379447664666      14.864845974594       1.976994158264
       366    1        3.541525241984      16.116796132434       1.982219741828
       367    1       -0.093939774800      14.823717474210       6.023172474890
       368    1        0.572916571417      16.007426280378      10.074018516142
       369    1        2.065662152194      16.068352414026       6.022625590225
       370    1        2.733110843826      14.763535556346      10.068455168804