Position data Generated by SPaMD
60	atoms
2	atom types
0.000000		8.242656	xlo xhi
0.000000		4.758900	ylo yhi
0.000000		12.991000	zlo zhi
-0.000000		0.000000	0.000000	xy xz yz

Atoms

1	1	1.373776	2.379450	10.582088
2	1	2.747552	-0.000000	8.904412
3	1	0.000000	0.000000	8.416921
4	1	1.373776	2.379450	6.739246
5	1	0.000000	0.000000	1.921421
6	1	1.373776	2.379450	0.243746
7	1	2.747552	-0.000000	12.747254
8	1	0.000000	0.000000	11.069579
9	1	2.747552	-0.000000	6.251754
10	1	0.000000	0.000000	4.574079
11	1	1.373776	2.379450	4.086588
12	1	2.747552	-0.000000	2.408912
13	2	1.485826	0.728458	7.578083
14	2	2.859602	1.650992	9.743250
15	2	4.009278	0.728458	7.578083
16	2	2.747552	3.301984	7.578083
17	2	-0.000000	1.456916	9.743250
18	2	1.261726	4.030442	9.743250
19	2	0.112050	3.107908	11.908417
20	2	1.485826	4.030442	1.082583
21	2	2.635502	3.107908	11.908417
22	2	1.373776	0.922534	11.908417
23	2	2.747552	1.456916	1.082583
24	2	4.009278	4.030442	1.082583
25	2	2.859602	3.107908	3.247750
26	2	0.112050	1.650992	5.412917
27	2	1.261726	0.728458	3.247750
28	2	-0.000000	3.301984	3.247750
29	2	1.373776	3.836366	5.412917
30	2	2.635502	1.650992	5.412917
31	2	6.756830	4.030442	5.412917
32	2	5.495104	1.456916	5.412917
33	2	4.121328	0.922534	3.247750
34	2	5.383054	3.107908	3.247750
35	2	4.233378	4.030442	5.412917
36	2	6.980930	0.728458	3.247750
37	2	8.130607	1.650992	1.082583
38	2	6.868880	3.836366	1.082583
39	2	5.495104	3.301984	11.908417
40	2	6.756830	0.728458	11.908417
41	2	5.607154	1.650992	1.082583
42	2	4.233378	0.728458	11.908417
43	2	5.383054	1.650992	9.743250
44	2	4.121328	3.836366	9.743250
45	2	6.868880	0.922534	7.578083
46	2	8.130606	3.107908	7.578083
47	2	6.980930	4.030442	9.743250
48	2	5.607154	3.107908	7.578083
49	1	6.868880	2.379450	2.408912
50	1	5.495104	-0.000000	4.086588
51	1	4.121328	2.379450	4.574079
52	1	6.868880	2.379450	6.251754
53	1	4.121328	2.379450	11.069579
54	1	6.868880	2.379450	12.747254
55	1	5.495104	-0.000000	0.243746
56	1	4.121328	2.379450	1.921421
57	1	5.495104	-0.000000	6.739246
58	1	4.121328	2.379450	8.416921
59	1	6.868880	2.379450	8.904412
60	1	5.495104	-0.000000	10.582088
