Position data Generated by SPaMD
2	atoms
1	atom types
0.000000		2.855300	xlo xhi
0.000000		2.855300	ylo yhi
0.000000		2.855300	zlo zhi

Atoms

1	1	0.000000	0.000000	0.000000
2	1	1.427650	1.427650	1.427650
