ITEM: TIMESTEP
4000000
ITEM: NUMBER OF ATOMS
13500
ITEM: BOX BOUNDS pp pp pp
-4.0817822908230639e+00 5.8306782290831393e+01
-4.0817822908230639e+00 5.8306782290831393e+01
-4.0817822908230639e+00 5.8306782290831393e+01
ITEM: ATOMS id type x y z 
4074 2 -2.22608 -1.53683 0.33901 
13060 1 -2.13564 -2.49941 -2.24122 
12115 2 0.0794721 -1.11678 -1.36146 
1285 1 -3.25637 -0.369499 -3.85972 
4164 2 2.85153 -2.2039 -2.57747 
12655 1 3.13411 -2.20218 0.613436 
8566 1 4.77469 -1.04331 -1.22837 
6186 1 1.44719 -3.40743 0.547503 
4467 1 0.453732 -3.23004 -3.13025 
10855 1 1.82304 -0.562359 -4.02568 
10795 2 5.93166 -3.23218 -2.7614 
6997 2 6.80628 -0.55282 -3.56699 
4974 2 8.6736 -1.5684 -1.10108 
4726 2 5.89517 -2.83252 0.582113 
3967 1 5.10064 -0.0238628 0.997471 
1338 2 11.8073 -1.73186 -2.07382 
5593 1 11.2553 -1.38933 0.550874 
8838 2 13.7317 -0.429952 -0.253296 
12073 1 10.1975 -0.0808552 -3.92356 
4152 1 9.9482 -3.85937 -1.78201 
17 2 9.36289 -2.52154 -3.90285 
6430 2 14.7898 -2.32901 -3.00432 
11022 1 16.809 -0.859061 -0.816553 
6738 2 14.0795 -3.76402 -0.210093 
13478 2 17.5651 -1.69781 -3.19825 
7477 1 15.4327 0.0713161 -2.45707 
4872 2 21.3754 -3.53805 -1.17357 
5623 1 20.3382 -1.18092 -3.12653 
6160 2 19.2506 -1.17834 -0.590614 
3409 1 21.4118 -1.24268 0.88949 
5580 1 19.395 -3.88953 -2.42751 
11733 1 22.6525 -2.53439 -3.19072 
1064 1 18.9902 -3.25851 0.770088 
3894 2 23.5017 -1.95244 -0.517077 
11612 2 26.3077 -2.69512 -0.080009 
148 2 26.5735 -0.0148912 -1.87591 
3617 1 26.7303 -3.21928 -3.07875 
6545 2 24.7173 -1.20356 -3.60594 
6429 1 -2.03216 0.311569 -2.26201 
9207 1 -2.76471 1.04739 0.265448 
10738 2 -1.96277 3.30298 -2.03247 
6696 1 -0.270933 1.40955 -0.17438 
11820 1 -3.82579 3.29143 -0.0201905 
7143 1 4.12169 0.258661 -3.53735 
1327 1 0.681411 1.14954 -2.49969 
8807 2 2.90784 0.578875 -0.679538 
12077 1 3.19316 2.62791 -2.47517 
11669 2 1.97004 3.26297 0.0820559 
9028 2 0.849051 3.88254 -2.73152 
11012 1 4.63284 4.09926 -0.784821 
1284 1 6.84298 0.181407 -0.255452 
1189 1 8.54885 0.77038 -2.238 
1890 2 5.73634 1.52909 -1.92039 
7962 1 8.26569 2.64052 -0.481459 
6402 2 9.28074 2.96277 -3.03228 
9034 2 10.8417 1.00652 -0.979866 
7863 1 12.2924 2.60939 -2.53671 
9937 2 12.9205 0.251123 -3.77295 
9481 1 13.8827 2.44491 -0.401183 
7491 1 15.7952 1.33789 -0.545576 
4847 2 15.5365 3.05856 -2.60097 
8924 2 17.8673 4.03917 -1.45009 
3007 1 15.5101 3.9841 -0.0303041 
607 2 22.0743 0.216877 -1.8332 
434 2 18.5629 1.32699 -2.39994 
4073 2 21.0925 3.04512 -0.82025 
3006 1 21.3215 2.16757 -3.52515 
10741 1 19.5802 4.07332 -3.19946 
3180 1 21.1673 0.86661 1.03128 
9448 2 18.3388 1.79234 0.540739 
3194 1 24.2232 0.41958 -0.0717747 
1997 2 24.1752 2.75054 -1.59862 
7877 1 26.3648 2.14722 -0.539189 
4399 2 26.3918 3.45725 -3.58358 
3292 1 24.2899 1.57689 -4.0147 
12964 2 -2.75506 5.99981 -0.945495 
12929 1 -0.795929 7.75598 -0.016621 
4632 1 -0.420761 4.70809 -0.198597 
1702 2 0.249089 6.95239 -2.58729 
9223 2 -3.04752 7.33849 -3.57462 
7338 1 -1.81271 4.97623 -3.86507 
11596 2 1.5239 6.28753 0.0150033 
7520 1 2.77636 8.13692 -1.53769 
10150 2 3.38307 5.68502 -2.54178 
4944 1 4.28578 6.44369 0.191797 
2806 2 6.56702 4.485 -2.55557 
8313 2 6.06491 7.64775 -1.5798 
8455 1 9.10797 6.13892 -0.953823 
12879 2 8.24817 8.33537 0.752426 
13050 1 7.50152 6.90706 -3.76267 
6426 2 6.94542 5.4583 0.808243 
1619 2 10.7776 4.38493 -0.880068 
12450 1 11.5874 4.65882 -3.7865 
395 2 13.4576 5.47483 -1.75909 
3327 1 9.55047 5.99084 -3.13383 
4263 1 11.385 7.15649 -0.954518 
7066 1 13.7058 7.75894 -0.0765966 
282 2 11.6849 7.35182 -3.91105 
11347 1 16.0016 5.43033 -2.77443 
6420 1 15.7752 6.46681 -0.390777 
7381 1 17.4735 7.23477 -1.85646 
8720 2 14.3003 8.35856 -2.66049 
4797 1 17.9544 7.08566 0.730468 
1092 1 22.5122 4.97632 -2.32432 
1678 2 20.0557 6.41249 -1.00072 
4869 1 19.1672 7.80685 -3.81504 
4369 2 23.2515 6.90887 -0.437691 
2597 1 23.0639 7.22685 -3.55344 
8406 1 24.5304 4.55748 0.259771 
8092 2 25.2968 5.72976 -2.15964 
9966 1 25.8853 6.39841 0.853245 
270 1 -3.87553 9.66867 -2.10693 
6298 1 -1.51279 8.98266 -2.34184 
7166 2 -2.93855 11.8941 -3.68517 
5381 2 -2.42149 9.95355 0.269677 
4730 1 0.0905955 10.7624 -3.03757 
13290 1 -3.43919 12.5465 -1.12965 
1508 2 3.68967 10.5498 -2.0615 
12805 1 1.58078 9.11161 -3.2187 
9288 2 0.772879 9.76509 -0.763574 
1498 1 3.40931 8.9832 0.447483 
9224 1 2.51272 11.5603 0.696408 
12266 2 5.76425 11.0252 0.166388 
4336 1 7.49647 10.5818 -1.52748 
11403 2 9.25539 8.44452 -1.97249 
2592 1 8.67026 10.8689 0.446584 
10974 1 6.68615 9.39454 -3.77754 
9631 1 5.91351 12.4578 -2.50184 
8889 2 9.57718 11.8231 -2.1616 
537 2 10.9954 9.9629 0.198444 
4733 2 12.232 9.89499 -2.50682 
7851 1 13.6672 10.3054 -0.0778367 
6865 2 15.9477 8.9671 -0.151006 
7482 1 17.2092 11.9778 -1.89871 
2353 1 16.9224 9.73137 -2.91047 
9951 1 15.0016 11.1668 -2.00465 
284 1 18.0453 11.4297 0.600704 
8461 2 15.5232 12.127 0.888639 
6911 1 21.3231 8.54624 -2.15359 
8252 2 19.3187 11.0078 -3.47139 
7713 2 19.0736 9.42906 -0.943704 
8909 1 22.0459 11.0013 -2.72551 
8715 2 22.0735 9.74267 -0.170086 
12063 1 25.3778 8.58669 -0.244382 
13036 2 24.1436 9.14603 -2.60316 
10661 1 24.4293 11.8106 -3.06284 
7241 1 25.4664 11.0845 -1.07284 
8101 1 24.4431 10.917 0.890617 
3087 2 26.9083 8.49049 -2.24777 
9256 1 26.925 11.0464 -3.13105 
13483 2 -0.757745 12.9178 -0.620856 
5291 1 -2.17013 14.6695 -2.26026 
1752 1 -3.72473 15.093 -0.800089 
1003 2 -0.122658 14.071 -3.81704 
12829 1 -1.43256 16.4845 -0.838846 
13463 1 1.50692 12.5852 -1.68009 
6870 1 0.461044 15.2229 -1.64209 
2264 2 3.49447 13.858 -3.25715 
6965 1 4.367 13.0835 -0.591741 
6727 2 3.08716 15.8332 -1.43747 
9057 2 1.7492 14.1932 0.421465 
6984 1 7.46347 13.027 -0.756464 
836 1 8.54265 15.5719 -0.584542 
6800 1 8.34831 14.1103 -3.01314 
6744 2 5.97435 14.8428 0.0659883 
10671 2 6.3045 15.8366 -2.65819 
1118 2 12.3444 15.7252 -0.0888673 
1601 2 12.4586 12.6056 -0.954802 
9942 2 12.7571 15.4796 -3.52061 
550 1 10.461 14.8832 -1.95923 
9015 2 10.3785 13.5857 0.566681 
1207 1 13.5098 12.9239 -3.67416 
3524 1 13.718 13.7361 0.949166 
8514 2 15.0996 13.9067 -1.56417 
7474 2 16.0746 16.5293 -0.271924 
10578 1 17.7335 14.2616 -1.23277 
9108 1 16.5447 15.8986 -2.98647 
11704 2 22.077 16.6464 -4.07488 
10471 2 20.0914 12.6275 -0.581372 
2127 1 21.1857 13.1332 -3.20448 
6202 1 21.6718 15.0974 -2.0679 
5237 1 19.6302 16.0297 -0.503955 
6617 1 21.6927 14.7937 0.526068 
3573 2 19.0717 14.8906 -3.3763 
10665 2 25.6728 16.2022 -3.54733 
9003 2 23.3578 12.9297 -0.940022 
6700 1 23.6164 14.0952 -3.41729 
12992 2 26.372 13.7909 -1.71736 
11181 1 24.2538 14.126 1.09248 
8773 2 23.6948 16.1105 -1.06004 
7293 1 26.3951 15.3398 0.319804 
11634 1 -3.34175 -4.05228 1.38609 
4768 1 -1.63994 -1.82087 4.81489 
9489 1 -3.68294 -1.7535 2.9499 
7694 2 -0.586865 -3.02994 2.83473 
2382 1 4.81824 -3.64482 5.30508 
11811 1 0.83851 -0.767867 3.85279 
2367 1 0.870263 -1.3611 1.28151 
5478 2 3.03028 -0.509262 2.62066 
8775 2 3.42082 -1.25215 5.75105 
375 2 1.14172 -2.98341 5.47013 
2004 1 0.593611 -0.100156 5.99059 
4645 2 2.56737 -3.77142 3.22235 
2057 1 5.11608 -1.93556 3.04021 
4879 1 7.05041 -0.555362 2.18859 
894 2 6.76152 -1.97648 5.05371 
5085 2 9.01088 -2.43187 1.80195 
2750 1 6.95884 -3.60076 2.96333 
5145 1 8.76711 -0.614327 3.75118 
6374 2 9.24992 -3.54673 4.73059 
5845 1 10.0824 -0.877748 6.0856 
535 1 13.1556 -2.12651 2.00476 
2079 2 11.6423 -0.836053 3.4539 
12138 1 12.4321 -2.88919 6.08408 
9410 2 17.4404 -3.37933 3.62336 
9952 1 16.6157 -3.27693 1.27297 
8095 2 14.3681 -2.19452 4.4919 
2873 2 16.8772 -0.177772 5.00513 
12876 2 15.9845 -0.651251 1.73466 
11900 1 16.5024 -2.53245 6.2498 
6977 2 21.4798 -3.41176 2.59616 
7773 2 19.8968 -2.49499 5.50627 
1042 1 21.2467 -0.538192 3.36591 
3370 2 18.9347 -0.945243 2.61826 
1656 1 26.9662 -3.4861 2.254 
4518 2 23.1991 -1.37092 5.76424 
6442 1 25.0665 0.0629295 4.46301 
7278 2 24.3543 -2.50578 2.45482 
6637 1 25.306 -3.96471 4.51253 
1738 2 27.0557 -1.66402 4.21949 
11094 2 -1.40399 0.134776 2.81601 
9801 1 -3.43127 0.189554 4.79994 
846 2 -1.5065 3.17851 1.72528 
7420 1 -2.72632 2.55776 6.17639 
5535 2 -0.248908 2.02809 4.89513 
9875 1 -3.33777 2.31179 3.85492 
1159 1 1.0703 1.60409 2.34258 
11414 1 2.3095 1.43887 4.29845 
5924 1 3.57903 1.91279 1.88537 
717 2 3.92958 3.66076 3.97059 
2148 1 1.93706 4.02644 5.64565 
6440 2 9.1972 0.60317 1.18619 
8500 2 6.17195 2.5851 1.33829 
13475 2 5.55019 1.02946 4.30262 
133 2 7.35756 3.94396 3.98519 
6304 1 7.9996 1.59274 3.2339 
9039 1 7.9219 0.617747 5.95323 
7896 1 5.53178 3.78464 6.1242 
5377 1 7.38018 2.8232 6.25465 
1818 2 12.5571 1.5157 1.8735 
9215 2 10.1147 2.52749 4.91357 
380 1 12.6507 1.58087 4.67712 
8636 1 12.0048 3.80443 3.12858 
3791 2 13.386 3.72893 5.50746 
4704 2 9.47931 3.57065 1.95233 
3308 2 15.2954 2.15899 1.90318 
9298 1 14.5304 0.30539 3.7316 
9702 1 18.1476 1.77945 3.32655 
4585 2 16.5867 3.21586 5.0237 
7545 1 19.6158 0.1299 5.2164 
8794 2 20.6229 2.61442 2.88403 
1461 1 21.8181 1.2604 5.28467 
1953 1 18.7594 4.17586 3.70259 
4992 2 19.5235 2.77968 6.00527 
5252 1 23.0387 3.01039 1.33382 
9435 2 26.4191 0.0888242 1.43669 
7004 2 26.5374 2.20956 4.35098 
3332 1 25.6078 2.65012 1.54736 
9073 2 23.3094 0.452031 2.44612 
2504 2 23.65 3.39534 4.43586 
4928 1 -4.07731 6.33275 3.60382 
9758 1 -2.75727 5.91315 1.50411 
6536 2 -1.97244 4.57577 3.91941 
7648 1 -0.2665 6.56694 2.33697 
7911 2 -2.50864 8.30676 2.60544 
7440 1 -1.51686 7.33834 4.56522 
965 1 -0.422331 4.90411 5.7865 
5780 2 -3.62309 6.44152 6.21345 
485 1 3.63452 4.40589 1.50248 
11477 2 1.21555 4.5073 3.17311 
13182 2 1.42952 6.92879 5.03173 
13044 2 3.20998 6.91668 2.59933 
10357 1 3.90644 5.97735 5.52345 
880 1 4.18586 8.24985 5.22269 
287 2 6.46881 8.18411 4.03765 
2711 1 5.47547 5.73055 3.11654 
4447 1 8.73632 7.8157 5.23526 
6037 2 6.79852 5.91368 6.06468 
9220 1 8.01659 6.50078 2.96003 
10997 1 5.81343 7.82022 1.61802 
12293 2 13.0958 5.19413 1.25547 
5201 2 10.693 6.53345 1.5208 
470 2 10.1954 5.85335 4.5071 
11192 1 12.711 6.25787 3.59052 
12837 2 11.8635 8.11448 5.51908 
9067 1 14.3702 6.91017 5.17755 
507 1 14.6657 4.52128 3.38668 
2326 2 17.1686 4.78915 1.78525 
3654 2 15.3439 7.47573 2.6572 
936 2 16.6632 8.28578 5.39271 
1612 1 16.8143 5.78338 4.24712 
11947 1 19.8682 4.81715 1.42088 
2607 1 18.7465 6.52457 2.90821 
10474 2 22.3679 5.3845 2.01691 
4332 2 21.2581 5.05444 4.89602 
5591 1 22.5946 7.22035 3.95782 
3470 2 20.7929 8.30045 1.7813 
1190 1 18.4856 5.38658 5.92441 
177 2 19.8749 8.10196 4.82349 
2577 1 27.1077 4.65209 4.86921 
9323 2 24.2489 5.94445 6.09824 
1946 2 25.2315 5.25698 2.85582 
718 1 25.0565 7.96059 4.71864 
10016 1 -0.384871 11.3145 1.55685 
4283 2 -0.437562 9.74293 4.97924 
11250 1 -2.18718 11.0809 3.15611 
7515 2 1.01842 8.84901 2.1022 
1996 2 3.8554 10.0962 2.88002 
10288 1 2.29013 10.0277 5.02102 
3774 2 1.25198 12.0568 3.5081 
2657 1 3.00193 12.3549 5.10194 
768 1 5.00535 10.8545 4.95573 
9007 1 6.43128 10.6064 2.58212 
6093 2 7.94838 11.0301 4.65046 
11535 2 9.73313 8.81418 3.10883 
9355 1 10.1786 11.4668 2.63509 
6396 2 12.8333 9.0478 2.43655 
2550 2 11.3197 11.2022 5.0846 
8859 1 12.6731 11.6381 2.17771 
3583 2 13.8727 12.202 4.87816 
421 1 13.85 9.66159 4.55862 
1007 1 15.4418 10.3328 2.83538 
9357 1 15.7728 10.7815 5.59067 
1526 2 17.8771 9.10061 2.71921 
194 2 17.2439 12.0557 3.80561 
8938 1 18.4618 10.1949 5.76801 
11462 1 19.838 10.8532 1.71027 
5239 2 22.1971 12.2329 1.98851 
8053 2 20.0957 11.9048 4.05328 
3834 1 22.0206 9.88783 3.04447 
6379 1 21.0389 10.4412 6.2663 
1663 2 24.2588 8.41929 2.21204 
426 2 22.7656 11.8919 5.14294 
6532 2 24.9621 11.1154 3.32934 
4127 1 23.2393 9.3011 5.43404 
7413 2 26.0608 10.1602 6.23788 
11840 1 26.5708 9.29717 3.75625 
13204 2 -1.47258 14.8428 1.23592 
2799 1 -1.06314 15.7474 4.2695 
11335 2 -3.69785 12.8598 1.45086 
10917 2 -3.83057 15.798 3.78724 
360 1 -1.26692 13.3365 3.47729 
7347 1 -2.39723 16.0527 6.27874 
1410 2 -1.69702 12.7489 5.78579 
1870 1 4.16747 16.3979 4.40854 
11809 1 0.707032 14.6466 2.80201 
9169 1 2.80904 14.4933 3.65865 
6517 2 4.40423 12.7804 2.22373 
4273 2 0.996319 14.6266 5.71142 
482 2 4.42252 14.5243 6.22143 
7025 1 5.9932 12.6191 4.39077 
4379 1 5.99809 15.1886 2.92751 
10112 2 7.77493 12.8466 1.88808 
150 1 8.64954 15.6451 1.68392 
4255 1 7.27361 14.2344 5.72561 
3837 1 8.08749 16.1459 4.09206 
4261 2 10.6012 15.7968 5.54071 
3186 1 10.989 16.0269 2.9485 
1333 2 9.51717 13.6278 4.19444 
10105 1 12.2965 13.928 2.81499 
6769 1 11.7588 13.6872 6.14547 
10914 1 13.1166 15.0425 4.45344 
5157 2 14.0299 16.0218 2.17156 
676 1 16.6697 14.5571 1.32577 
5270 1 14.9531 13.7203 3.18826 
2552 2 17.1072 15.333 3.76391 
420 2 15.5797 14.3897 6.23123 
12309 1 18.1553 16.5277 1.51684 
8168 2 19.3413 13.7137 1.93964 
6967 2 21.7694 14.6632 3.63789 
5975 1 19.149 14.0223 4.7149 
10988 2 26.8639 12.584 1.38561 
2680 1 24.3321 13.7585 3.48179 
7998 1 23.7629 15.3502 5.39867 
8742 2 23.8757 16.4485 2.27725 
3360 2 25.7234 13.3253 6.05405 
1270 2 26.8326 14.8549 3.57132 
10206 2 -1.64255 -2.56922 7.52252 
12182 2 -3.31302 -0.189691 9.91645 
11251 1 -3.04599 -2.84599 9.75938 
1133 1 -0.702866 -1.09649 9.71896 
8114 2 1.33583 -2.56602 8.45824 
7316 1 0.924365 -2.6939 11.452 
1022 1 3.34957 -1.24588 9.63734 
1151 2 4.2112 -4.04751 7.88298 
7256 1 6.79946 -3.85402 6.7402 
6140 1 4.99985 -3.10344 10.5126 
7030 2 8.25332 -1.46864 7.88694 
9607 1 5.35944 -1.81363 7.61193 
4474 2 6.61976 -1.0826 10.375 
3053 2 11.4363 -3.85981 10.8885 
9628 1 9.3204 -3.01397 9.77599 
6899 2 12.9864 -0.205889 6.4504 
12578 1 10.0284 -3.42664 7.27158 
8055 2 11.6709 -1.36629 9.02746 
3069 1 9.46103 -0.108519 9.90448 
9870 1 14.3763 -4.05738 10.657 
205 2 14.2849 -2.44194 8.12956 
6788 1 13.8187 -1.61569 11.0093 
6830 2 16.3641 -0.897245 10.4007 
1362 1 15.9007 -0.522685 7.5423 
2870 1 18.3643 -2.88226 10.3431 
682 2 18.5234 -1.3414 7.81537 
10991 2 21.34 -2.40042 8.24155 
1617 1 19.377 -0.81562 10.1052 
910 1 21.8239 -0.297662 10.4278 
5038 2 21.6707 -2.89192 11.1102 
802 1 23.2403 -3.98554 7.05274 
8576 2 26.3375 -1.13589 9.79624 
9367 2 25.6292 -2.45027 7.23672 
13500 2 24.2939 -3.24526 10.3183 
3825 1 23.5394 -1.22604 8.40438 
11159 2 -1.43153 0.303558 7.37476 
7039 2 -2.86013 2.81822 9.54968 
6829 1 -0.662512 1.40594 9.92644 
11001 2 0.294154 3.03715 7.80397 
3008 1 -1.2666 2.87838 11.463 
11789 2 1.69265 0.291776 8.57299 
7766 1 2.71707 1.54861 6.44253 
6904 2 1.78307 3.20479 10.5022 
12240 1 3.75831 1.43849 9.83637 
5881 2 3.99327 3.81834 8.36121 
4461 2 5.23883 0.885661 7.51837 
4429 1 7.39417 1.18656 9.35059 
484 2 9.0183 2.47438 10.853 
7013 2 7.37039 4.10091 8.91085 
12500 2 9.97058 1.24442 7.82057 
5186 2 12.0385 1.74496 10.4844 
219 1 12.7602 2.29345 7.95867 
2844 2 10.9701 4.16115 7.89935 
3220 1 17.9788 1.20964 7.35649 
8630 1 14.0533 0.300311 9.07995 
5998 2 14.9416 2.15214 10.6019 
11735 2 15.4245 2.06277 7.4079 
1895 2 18.0013 1.69442 9.83269 
3049 1 17.5446 3.7807 7.85946 
3378 2 20.8879 0.902171 8.05339 
6836 1 20.2898 1.65645 10.7554 
10779 1 22.0451 3.28695 7.01659 
7549 2 19.7613 3.90927 9.00737 
11422 1 22.1627 2.58816 9.33415 
4703 1 26.8225 1.63623 9.16319 
12438 1 24.0007 1.37585 6.36789 
12704 2 26.9819 0.512888 6.85923 
6540 1 26.3979 3.88392 9.72128 
11500 2 24.3119 1.21042 9.25078 
7438 1 23.8674 3.6327 10.7273 
2847 2 25.9154 3.34316 7.20268 
12207 1 -1.95429 4.40119 7.48621 
879 2 -0.990807 5.0743 9.83168 
13278 2 -0.877158 7.40023 7.53518 
11584 2 -3.43331 6.52763 9.23219 
9548 1 4.74016 4.41346 10.7775 
9806 2 3.2543 8.02241 7.73417 
2576 1 1.37142 5.36251 7.76354 
588 2 2.7854 5.92482 10.3014 
4912 1 0.956739 7.46101 9.47571 
1883 1 5.20471 6.13143 7.92367 
4516 1 8.02326 6.52984 8.48067 
2440 1 9.11652 4.63392 6.57633 
413 2 6.01011 7.16327 10.1845 
815 2 13.1448 7.36303 11.0979 
19 2 9.69582 5.27493 10.3745 
5357 1 12.2616 5.82235 6.48349 
6020 1 9.96771 7.03991 7.57641 
12969 1 12.1437 6.58677 8.77912 
353 1 12.5381 4.38905 10.9136 
8080 1 18.0912 6.64569 11.088 
3605 1 16.5164 4.46289 9.67365 
9052 2 14.1743 4.56536 8.76634 
3330 2 14.3615 8.10122 7.81154 
3467 1 16.035 5.0458 6.64415 
9118 1 15.603 6.46416 9.83524 
6551 2 17.8834 6.63538 7.85729 
8262 1 20.6031 5.90736 7.1785 
13187 2 20.5506 6.73436 10.0753 
6200 2 21.8393 8.03303 7.22177 
10972 2 22.951 5.07966 8.87821 
5174 2 25.4998 6.53449 8.90176 
3155 1 23.0225 8.28822 9.73101 
12267 2 23.5422 6.20877 11.4694 
9321 2 -3.51413 9.00164 9.98745 
13499 1 -1.70586 10.871 7.76738 
12906 1 -2.99558 8.99009 6.94258 
11485 2 -0.453378 12.3361 9.59775 
5279 1 -0.798559 9.40366 9.4669 
10238 2 -3.36075 11.888 10.295 
7799 1 0.7097 9.53118 7.40319 
1781 1 0.464714 11.9267 6.80424 
11850 1 4.22244 8.89333 10.9552 
561 2 3.14146 10.9677 7.40002 
11157 2 1.81139 10.0629 9.95749 
1472 1 7.91575 9.50575 9.53723 
5581 2 6.32621 8.78828 7.08819 
208 2 5.42153 10.5708 9.75657 
9867 1 7.83395 11.3126 11.1527 
6418 2 9.26714 9.88599 7.35498 
943 1 8.92206 11.8091 9.05445 
3395 2 6.64697 12.2385 7.06705 
9000 2 10.3026 8.47704 10.2041 
4003 2 10.5841 11.4783 11.1441 
3691 1 12.021 9.14578 8.14742 
2959 2 11.3645 11.9802 8.16538 
2759 2 13.3619 10.4165 10.2983 
240 1 13.3865 10.6813 6.92375 
6585 1 17.0208 9.18638 7.83649 
1654 2 17.2411 11.3713 11.2758 
5137 1 15.9188 8.7601 10.2054 
7236 2 15.6554 11.5277 8.02239 
8956 1 17.8872 12.3067 6.3732 
505 1 19.3652 8.79979 7.37069 
12078 1 20.9975 9.28364 9.36192 
11600 2 19.4131 11.4388 8.16038 
2704 1 18.7379 8.71124 9.98877 
4684 1 19.5852 11.1161 10.8898 
9425 1 22.4385 11.0507 10.5947 
7840 2 27.086 11.1713 11.4899 
3481 1 24.4295 11.3872 11.4358 
6046 1 24.4743 8.51533 7.24293 
1015 2 22.9499 11.0146 7.98572 
6771 2 25.3598 9.68539 9.23226 
7681 2 -3.51619 15.0811 10.4314 
9079 1 -2.77765 13.7761 8.25258 
2016 2 -0.545185 15.1533 8.11012 
1878 1 -3.24928 16.5321 8.3157 
10410 2 2.95991 15.8893 10.8466 
12288 1 1.97591 12.6688 8.89486 
9868 1 1.1124 14.1445 10.7201 
9330 2 4.60079 13.4888 9.22449 
12431 1 2.38002 15.0211 8.16779 
9621 1 4.47947 16.2348 8.79623 
2677 1 5.69639 12.6859 11.5095 
12356 1 8.30025 15.7387 6.61887 
785 1 5.36762 15.1881 11.0258 
3043 2 7.98839 14.0446 10.8275 
201 1 6.64884 14.913 8.34462 
6582 1 6.72631 16.667 10.0188 
2561 1 9.30131 12.9578 6.65567 
3018 2 9.87015 14.8406 8.56879 
2610 2 12.6132 13.9675 10.2619 
2272 2 12.8727 16.2069 7.41461 
3571 1 13.6786 13.1782 7.66331 
2699 1 10.41 15.1124 11.3809 
6922 1 16.4264 16.3681 7.94125 
10649 1 14.8543 12.6179 10.3383 
252 2 16.7502 16.3583 10.733 
3091 2 17.7065 13.699 9.3176 
2665 1 14.9615 14.9509 8.91611 
10623 1 19.5218 13.5567 11.3981 
6508 2 21.8459 16.6828 11.0385 
440 2 21.3233 13.5012 9.62087 
2718 2 20.9426 14.357 6.49557 
3939 2 19.6866 15.8782 8.74062 
7163 1 18.3798 14.4271 6.60279 
9184 1 25.3862 15.8165 10.183 
4825 2 25.0142 13.2019 9.04454 
2700 1 23.1644 15.1975 8.93892 
1537 1 23.3419 13.7601 7.13437 
5832 2 25.6835 16.4379 6.9052 
652 2 -0.772728 -2.3818 14.1778 
8404 1 -3.63669 -2.0053 15.05 
511 1 -3.52913 -1.54599 12.6072 
11388 1 -2.15626 0.0174082 15.2021 
6694 1 -1.32603 -2.33661 11.516 
7005 2 3.46987 -3.58933 15.6093 
5454 1 1.89777 -2.46475 13.5573 
1961 2 4.29804 -0.914267 12.6462 
7933 1 1.3909 -1.72049 15.901 
13259 2 1.32725 -0.111606 11.6869 
7707 2 6.43035 -2.87221 15.4845 
9779 2 8.94873 -0.536342 15.1992 
5553 2 8.39079 -2.59428 12.6208 
595 1 6.79993 -0.246377 13.6255 
156 1 5.57655 -0.443327 15.4318 
11556 1 5.8847 -3.33038 12.6443 
6445 2 9.46429 -3.65044 16.019 
6449 1 11.0778 -1.75023 14.4668 
2712 2 13.5881 -2.88439 13.6582 
4836 2 10.9383 -1.02596 12.0945 
5303 1 13.037 0.0110254 14.5378 
816 2 12.8942 -1.92406 16.4202 
67 1 15.4821 -2.57762 15.8229 
1199 2 15.7427 -0.517072 13.5483 
2003 1 14.5582 -0.102313 16.334 
12573 1 17.9051 -2.30802 14.9645 
8083 2 16.1591 -3.5972 12.6253 
6859 1 17.979 -1.2345 12.3001 
5430 1 20.1852 -1.02559 15.9926 
7763 2 20.3094 -0.542483 12.713 
2571 2 20.2454 -3.63611 16.0495 
9873 2 22.6324 -1.67989 14.4355 
6117 2 19.2238 -3.85086 12.6231 
5582 1 24.2854 -3.11792 13.0743 
5135 2 25.566 -1.64984 15.8037 
4906 1 23.9787 -1.06795 11.7873 
5956 2 26.1203 -0.706575 13.2153 
2547 2 26.7927 -3.40578 11.7609 
11640 1 0.155005 0.154184 14.8389 
174 2 -2.45838 2.70237 15.0138 
7737 2 -1.91696 0.382356 12.6032 
13380 2 0.483681 2.37236 13.7061 
9809 2 2.9239 0.50652 14.7132 
13242 1 3.41391 2.89632 15.6378 
11654 1 3.19449 1.46514 12.119 
1933 2 3.27286 3.76778 12.8967 
10691 2 5.85641 1.69399 11.6084 
11803 1 8.48405 0.323918 12.0131 
4196 1 5.1032 1.58667 14.2734 
8899 2 7.5645 1.52971 16.3759 
7248 1 7.59932 2.13424 13.7465 
3625 2 6.01786 4.16145 15.1877 
6778 2 9.23519 3.95967 14.4611 
9669 1 11.3208 0.304418 16.293 
4953 2 10.7572 1.35371 13.5495 
5518 2 13.3553 2.06612 16.6661 
12899 2 13.1653 2.80361 13.257 
7652 1 10.9648 3.94973 12.6106 
2363 1 10.3971 2.2815 16.3316 
7292 1 13.6618 0.200219 12.0549 
713 1 16.1059 2.34465 12.9945 
8438 1 15.8115 1.64695 15.5109 
7980 1 17.8504 3.00035 14.5102 
9638 2 18.0947 4.0698 11.9086 
957 1 18.0701 1.04153 12.2575 
3337 2 15.3731 4.13503 15.4988 
11948 2 18.2876 0.443719 14.7233 
10200 1 21.2981 0.99032 14.5369 
9771 2 19.8133 2.68539 16.2904 
10498 1 20.0524 2.33091 13.1885 
12635 2 22.3982 3.87073 15.4966 
5023 2 22.7915 1.52175 11.9448 
1800 1 26.157 2.99207 14.1298 
1902 1 23.9238 3.72347 13.158 
7702 2 23.9959 1.21534 14.7594 
806 2 26.0115 2.13607 11.6237 
12140 1 26.2189 1.04227 16.0755 
8275 1 -2.7779 7.4041 15.1185 
39 2 -1.75035 5.40595 13.7933 
8577 1 -1.29237 5.78677 16.5647 
4798 2 0.0455334 7.96839 15.2661 
6122 1 0.335454 5.07735 12.2034 
11097 2 -4.07074 7.45237 12.333 
895 2 -0.615677 7.86514 11.6053 
8981 1 -2.80643 5.37582 11.5611 
2807 2 0.885236 4.66363 15.8385 
7642 1 3.42461 5.39447 15.4711 
7020 1 1.59302 6.17599 13.6092 
2467 2 4.76779 6.40869 12.9079 
5413 2 3.18482 8.17272 14.8852 
8959 1 2.46373 7.74559 12.0435 
6464 1 5.06447 6.84749 15.8766 
4923 2 7.13942 4.47409 11.8912 
1885 2 7.67059 6.78563 14.2234 
6653 1 8.15524 7.04108 11.7472 
4351 2 12.1554 4.71087 16.0191 
7500 2 10.5932 6.95181 12.9806 
3190 1 13.0772 7.97701 13.4995 
11825 1 12.6875 5.44682 13.4077 
2601 1 9.953 6.16284 16.1872 
1530 1 12.2879 7.25878 15.4628 
12372 1 14.885 6.40323 13.8901 
5155 2 17.4619 6.09971 14.0851 
12800 2 15.0819 4.84859 11.9923 
1214 1 16.0322 7.58551 12.2718 
492 2 21.2735 4.45874 11.9946 
11444 1 19.8569 4.52125 14.5144 
10728 1 20.0233 6.63587 12.9277 
458 1 19.3489 7.8701 15.1628 
11688 2 22.0506 7.3526 14.4379 
2458 2 26.6376 5.06747 12.183 
262 2 24.6581 5.8662 14.2189 
13173 1 23.2055 6.54021 16.5965 
11281 1 26.7548 7.51314 13.7646 
722 1 -1.91319 8.81586 13.3517 
6137 2 -2.48132 10.2306 15.4445 
6862 1 -1.2413 10.8639 12.0494 
10125 2 0.17443 11.2782 15.1194 
4006 1 -2.30002 12.3851 13.8967 
261 1 0.620106 12.5066 12.8541 
7748 2 0.859447 9.71721 12.8337 
7700 1 2.8093 10.8095 15.1321 
366 1 3.79407 10.0076 12.9546 
12477 2 2.96827 12.4148 11.7904 
12479 1 3.98626 12.1053 16.7103 
12884 1 5.67951 8.90421 15.1195 
7015 2 5.47188 12.0713 14.0295 
8045 2 6.57409 9.29656 12.5677 
5013 1 7.90323 10.0775 14.6571 
8950 2 8.50421 12.4834 13.4584 
9586 1 9.17865 9.28151 12.7227 
4773 2 6.52058 11.4616 16.7096 
3038 1 9.95959 8.42989 15.1297 
451 2 11.6972 10.1007 13.3271 
9899 2 10.0727 11.1755 15.8177 
5197 2 13.2475 9.69107 16.0793 
2585 1 13.602 12.2919 12.2569 
4746 2 12.7749 12.4433 14.6137 
4258 1 16.3026 8.41384 15.0045 
1050 2 14.7058 10.1638 13.1538 
76 1 15.5507 11.5595 16.324 
3375 1 17.2079 10.7721 14.4051 
3034 2 18.0948 12.5167 16.2751 
5026 2 18.3324 9.15669 12.9602 
433 2 20.2251 10.3252 15.1036 
11795 2 21.1389 9.05125 12.0621 
13207 2 21.6703 12.2894 12.6937 
3587 1 19.0667 12.2283 13.3861 
2788 2 24.659 8.8445 12.2009 
6734 2 24.745 8.61388 15.46 
4609 1 23.2929 10.6101 13.2985 
9443 1 26.2726 10.0687 13.858 
9854 2 22.8502 11.5638 15.8121 
10255 1 -2.21163 16.5403 12.537 
552 2 -2.99605 14.9691 14.5295 
7944 1 -0.556603 14.1032 14.8069 
2175 2 -1.28471 14.0937 12.0256 
2936 1 1.35286 15.6579 15.7221 
6756 1 1.28229 14.8592 13.2891 
6604 1 4.32632 14.3584 12.7386 
3027 2 2.73391 13.4534 14.9671 
6225 1 3.13959 16.5333 13.5577 
411 2 3.47225 16.6259 16.2161 
9154 2 6.60615 15.2558 13.6735 
4111 1 5.25318 14.0776 15.9016 
9601 1 10.9118 13.0187 12.9973 
3671 2 9.75372 15.4083 14.4219 
11785 1 11.0449 13.9098 16.1309 
690 2 12.7318 14.9817 13.2172 
2541 1 13.7896 14.7713 15.5484 
5976 2 15.6942 13.2438 13.9551 
9652 1 16.6622 15.3577 15.9715 
1026 2 15.6662 16.3472 13.4356 
11346 2 18.1936 15.3176 13.8018 
11626 1 14.9171 14.5476 11.5835 
5675 1 17.1052 14.0682 11.7526 
13462 1 22.539 16.3264 13.5087 
7174 1 20.6798 14.7426 12.9928 
12388 1 20.6928 13.2182 15.2021 
9336 2 20.6935 15.724 15.5184 
8780 1 19.2014 15.9958 11.5185 
9491 2 23.5693 14.4214 11.6683 
4135 2 24.8065 16.5301 15.2613 
3591 2 25.3385 12.7482 13.9369 
7041 1 22.9167 14.2489 14.2822 
3139 1 26.0458 15.3715 12.8657 
2225 1 23.2066 14.8526 16.6984 
12000 1 -2.73167 -3.48002 19.7746 
12330 2 -1.42898 -1.99697 17.2605 
7775 2 -0.0306971 -3.36576 20.3475 
1745 2 -2.58253 -0.191398 19.3927 
3723 1 0.571111 -1.15535 21.125 
3086 1 0.5962 -0.956838 18.3547 
12485 1 2.06226 -3.1506 17.8547 
5288 2 3.21416 -2.23232 20.1365 
11338 2 3.75306 -0.720069 17.3952 
5726 1 7.38749 -3.96254 18.2181 
96 1 5.11541 -3.26891 18.2209 
3824 1 5.98651 -2.13848 20.5652 
9794 1 7.76147 -0.262749 20.4394 
46 2 6.81682 -1.03938 18.0681 
5564 2 8.80825 -2.63477 19.8548 
3659 1 10.4461 -2.04914 17.8904 
10244 2 12.1827 -2.60034 19.8265 
5528 2 10.3923 -0.35221 21.4595 
2505 1 12.4131 -0.0996621 18.6173 
10729 2 17.2494 -0.803631 17.1332 
12112 1 15.1614 -2.08257 18.3774 
12257 2 17.3839 -3.02843 19.7511 
12070 2 14.605 -1.24888 21.2194 
1691 1 17.6662 -0.0605893 19.4158 
7832 1 14.4178 -3.73218 20.375 
7110 2 20.1343 -2.52834 18.7682 
6699 1 22.5045 -1.93373 19.6941 
7733 2 19.1659 -0.701985 21.4184 
1031 2 21.0505 -3.55045 21.8437 
4402 2 22.4344 -3.76782 17.7503 
9522 2 22.7692 -0.535732 17.3916 
7682 1 26.4329 -3.20544 20.1805 
11266 1 24.7104 -2.64907 18.5587 
7952 2 24.3186 -0.126459 20.4978 
7617 1 23.6245 -4.0304 20.1669 
359 2 26.5481 -0.744158 18.6945 
11814 1 -3.37724 1.95176 21.2096 
5206 1 -1.12045 0.790191 17.1399 
669 1 -1.02321 3.67885 17.3593 
6933 2 -3.24464 2.16501 17.9471 
9636 2 -0.230989 1.85158 19.9197 
10005 1 -1.64861 3.28113 21.9041 
468 2 4.73751 0.450685 20.4308 
232 2 1.58798 1.54932 17.1905 
10225 1 2.23332 0.437264 19.7695 
6805 2 3.44408 2.97937 19.7279 
7073 1 4.61886 1.76572 16.8744 
10168 2 0.986427 4.16891 21.315 
2486 1 6.31618 1.42685 18.7914 
3995 1 6.08413 2.36346 21.3553 
13335 2 8.53443 3.04229 20.0722 
5010 2 6.21212 4.04826 18.2831 
8349 2 9.37382 0.643363 18.5047 
609 1 12.8512 0.774867 20.9988 
6752 2 11.5664 3.02254 18.9843 
13088 1 9.39203 4.07789 17.3952 
9805 2 11.3132 2.99738 21.9126 
7888 2 15.0657 0.720157 18.7414 
2901 2 14.4269 2.92463 20.5994 
3900 1 17.7213 2.07562 17.1593 
2775 1 16.6574 0.923816 21.4892 
13302 1 15.5818 3.62472 18.0019 
11638 2 17.6845 2.82584 19.8112 
8188 2 19.7742 0.648806 18.5008 
11323 2 20.8716 3.42556 19.5591 
1264 1 22.5468 2.17774 17.4403 
3531 1 21.755 0.826218 20.0358 
164 2 19.7349 1.9955 21.9075 
4464 1 26.4783 0.601498 21.5123 
5685 1 24.9975 1.34644 17.7136 
11946 2 25.1264 4.20204 17.0595 
1360 2 23.8955 2.59722 19.9928 
6461 2 26.8193 2.59422 19.5269 
7414 2 -2.11541 5.02719 19.3284 
1314 2 -0.95996 8.0174 18.3844 
9651 2 -1.83655 7.42863 21.4246 
387 2 -3.80848 7.74498 17.8844 
11752 1 0.447368 5.14396 18.7819 
2595 1 3.63074 4.39023 17.4588 
11873 1 0.526973 6.87626 20.2661 
4572 2 2.09048 7.13123 17.8436 
3222 1 2.8359 5.41518 19.7755 
11836 1 7.63461 5.97991 16.7647 
10706 1 5.25378 5.43042 20.5603 
7689 2 8.26985 6.39059 19.3774 
1432 2 5.21541 7.05906 18.3531 
3582 2 6.25361 7.78221 21.4794 
3023 1 13.3327 4.76395 18.3601 
1424 1 10.0248 5.07011 21.3788 
7523 1 10.8684 5.29913 19.0549 
8037 2 11.0468 7.88408 20.7233 
2996 2 13.3452 5.7929 21.219 
11488 1 12.7611 7.23198 18.8873 
11193 2 14.3881 6.86652 16.7667 
5064 1 17.0222 6.88597 17.209 
9711 2 17.96 4.45497 17.1812 
13263 1 15.7394 5.69195 18.7438 
8126 2 16.3772 5.42214 21.3246 
12344 2 15.5239 8.28738 20.0474 
2537 2 20.8633 5.90267 17.2041 
10544 1 19.1717 4.99803 21.255 
9908 2 18.4477 6.77966 19.5575 
7099 1 21.2967 5.96243 20.1066 
2258 1 19.5274 7.90361 17.5226 
2110 1 25.498 4.44023 20.8411 
1241 1 22.7607 4.50684 21.4138 
10335 1 22.7228 4.55828 18.1058 
5768 2 26.3274 6.86689 17.1391 
12184 2 24.052 6.75027 19.1932 
10590 1 -0.349462 10.9892 17.8904 
1564 1 -2.78519 10.1178 18.3277 
12275 1 -1.40825 10.5067 20.4875 
476 1 1.41741 9.54301 16.778 
5932 2 1.312 9.55961 19.608 
11721 2 3.96768 9.66058 17.7216 
2188 1 1.90158 12.0486 17.7885 
481 2 2.5417 12.1089 20.5609 
7616 1 4.09495 9.7482 20.3771 
5595 2 5.2026 12.4919 19.1616 
491 2 7.65518 8.71622 17.4344 
8430 1 6.39742 10.1218 19.3188 
962 2 8.13013 12.3913 20.2446 
5393 1 8.77665 9.03815 19.7172 
3495 1 9.08445 10.9813 18.2299 
515 2 11.0901 8.6145 17.6397 
11603 2 11.2137 10.8642 20.2928 
4393 2 12.5874 12.0721 18.0821 
11923 1 13.4391 9.69741 19.1902 
3777 2 17.5857 9.61352 16.9825 
12549 1 15.178 9.38387 17.8556 
5117 2 15.6881 11.5511 19.2271 
2801 1 17.9902 12.2345 21.3818 
1960 2 18.1851 9.64703 20.1129 
831 1 13.7614 11.512 21.4233 
3138 2 22.1963 8.60812 17.605 
796 1 20.5734 8.63826 20.1354 
9525 1 20.0384 10.2095 18.2242 
336 2 21.0814 11.9989 20.6519 
3588 1 18.9257 12.1086 18.9705 
12064 1 25.0023 9.05718 18.6042 
8817 1 26.1111 9.18731 21.0007 
4078 1 22.8192 11.1036 18.5565 
648 2 23.5311 9.67596 20.8657 
1667 1 25.1605 11.1936 17.2963 
12374 2 25.7534 11.5473 19.7152 
1147 2 -2.80816 12.9362 20.1275 
7935 2 -2.61179 13.1265 16.8073 
4989 2 0.254604 13.7479 17.3928 
4831 1 -1.88437 15.7688 17.1919 
10205 1 -1.14771 15.0884 19.7573 
8902 1 -0.0774318 12.5764 20.0259 
9847 2 -3.58857 15.8246 19.597 
3347 2 0.446806 16.5532 18.11 
1176 2 1.44918 14.8592 20.4961 
12916 2 3.13942 14.663 18.0753 
7014 2 3.81409 16.1442 20.4139 
3731 1 4.19249 13.9035 21.6034 