Position data Generated by SPaMD
45	atoms
2	atom types
0.000000		5.633512	xlo xhi
0.000000		4.878764	ylo yhi
0.000000		12.077450	zlo zhi
-2.816756		0.000000	0.000000	xy xz yz

Atoms

1	1	-1.402242	2.442925	3.709800
2	1	-0.000000	4.871680	3.709800
3	1	1.402242	2.442925	3.709800
4	1	1.402242	4.062095	0.316017
5	1	0.000000	1.633340	0.316017
6	1	-1.402242	4.062095	0.316017
7	1	-0.912500	2.725677	6.675849
8	1	0.000000	4.306174	6.675849
9	1	0.912500	2.725677	6.675849
10	1	0.912500	3.779342	9.427418
11	1	0.000000	2.198845	9.427418
12	1	-0.912500	3.779342	9.427418
13	1	1.414514	4.069179	7.735616
14	1	-0.000000	1.619170	7.735616
15	1	-1.414514	4.069179	7.735616
16	1	1.402242	0.809585	4.341834
17	1	2.816756	3.259594	4.341834
18	1	4.231270	0.809585	4.341834
19	1	1.904256	4.351932	10.701665
20	1	-0.000000	1.053665	10.701665
21	1	-1.904256	4.351932	10.701665
22	1	0.912500	0.526832	1.375784
23	1	2.816756	3.825100	1.375784
24	1	4.721012	0.526832	1.375784
25	1	1.414514	0.816670	11.761433
26	1	2.816756	3.245425	11.761433
27	1	4.218998	0.816670	11.761433
28	1	4.218998	2.435840	8.367650
29	1	2.816756	0.007085	8.367650
30	1	1.414514	2.435840	8.367650
31	1	1.904256	1.099423	2.650032
32	1	2.816756	2.679919	2.650032
33	1	3.729256	1.099423	2.650032
34	1	3.729256	2.153087	5.401601
35	1	2.816756	0.572590	5.401601
36	1	1.904256	2.153087	5.401601
37	2	0.000000	3.252510	3.339789
38	2	-0.000000	3.252510	0.686027
39	2	0.000000	3.252510	2.012908
40	2	0.000000	0.000000	7.365606
41	2	0.000000	0.000000	4.711844
42	2	2.816756	4.878764	6.038725
43	2	2.816756	1.626255	11.391423
44	2	2.816756	1.626255	8.737660
45	2	2.816756	1.626255	10.064541
