Position data Generated by SPaMD
2	atoms
1	atom types
0.000000		3.232000	xlo xhi
0.000000		2.798994	ylo yhi
0.000000		5.182000	zlo zhi
-1.616000		0.000000	0.000000	xy xz yz

Atoms

1	1	-0.000000	1.865996	1.295500
2	1	1.616000	0.932998	3.886500
