Kikuchi_sphere_radius
39.84063745
Kikuchi_line_intensity
823
-1.54702970	-0.53590683	-0.38595137	1.52925453
-1.54702970	-0.53590683	0.00000000	1.65530600
-1.54702970	-0.53590683	0.38595137	1.52925453
-1.54702970	-0.17863561	-0.57892706	1.18934475
-1.54702970	-0.17863561	-0.38595137	0.43887587
-1.54702970	-0.17863561	-0.19297569	1.40361025
-1.54702970	-0.17863561	0.00000000	0.47821618
-1.54702970	-0.17863561	0.19297569	1.40361025
-1.54702970	-0.17863561	0.38595137	0.43887587
-1.54702970	-0.17863561	0.57892706	1.18934475
-1.54702970	0.17863561	-0.57892706	1.18934475
-1.54702970	0.17863561	-0.38595137	0.43887587
-1.54702970	0.17863561	-0.19297569	1.40361025
-1.54702970	0.17863561	0.00000000	0.47821618
-1.54702970	0.17863561	0.19297569	1.40361025
-1.54702970	0.17863561	0.38595137	0.43887587
-1.54702970	0.17863561	0.57892706	1.18934475
-1.54702970	0.53590683	-0.38595137	1.52925453
-1.54702970	0.53590683	0.00000000	1.65530600
-1.54702970	0.53590683	0.38595137	1.52925453
-1.23762376	-1.07181366	-0.38595137	1.52925448
-1.23762376	-1.07181366	0.00000000	1.65530594
-1.23762376	-1.07181366	0.38595137	1.52925448
-1.23762376	-0.71454244	-0.77190274	0.42353513
-1.23762376	-0.71454244	-0.57892706	1.47610237
-1.23762376	-0.71454244	-0.38595137	0.55258743
-1.23762376	-0.71454244	-0.19297569	1.78510308
-1.23762376	-0.71454244	0.00000000	0.61040019
-1.23762376	-0.71454244	0.19297569	1.78510308
-1.23762376	-0.71454244	0.38595137	0.55258743
-1.23762376	-0.71454244	0.57892706	1.47610237
-1.23762376	-0.71454244	0.77190274	0.42353513
-1.23762376	-0.35727122	-0.96487843	1.30474137
-1.23762376	-0.35727122	-0.77190274	0.53048485
-1.23762376	-0.35727122	-0.57892706	1.89332065
-1.23762376	-0.35727122	-0.38595137	0.72441586
-1.23762376	-0.35727122	-0.19297569	2.37718486
-1.23762376	-0.35727122	0.00000000	0.81753626
-1.23762376	-0.35727122	0.19297569	2.37718486
-1.23762376	-0.35727122	0.38595137	0.72441586
-1.23762376	-0.35727122	0.57892706	1.89332065
-1.23762376	-0.35727122	0.77190274	0.53048485
-1.23762376	-0.35727122	0.96487843	1.30474137
-1.23762376	0.00000000	-1.15785411	1.49571406
-1.23762376	0.00000000	-0.77190274	2.30459491
-1.23762376	0.00000000	-0.38595137	3.21192037
-1.23762376	0.00000000	0.00000000	3.66057869
-1.23762376	0.00000000	0.38595137	3.21192037
-1.23762376	0.00000000	0.77190274	2.30459491
-1.23762376	0.00000000	1.15785411	1.49571406
-1.23762376	0.35727122	-0.96487843	1.30474137
-1.23762376	0.35727122	-0.77190274	0.53048485
-1.23762376	0.35727122	-0.57892706	1.89332065
-1.23762376	0.35727122	-0.38595137	0.72441586
-1.23762376	0.35727122	-0.19297569	2.37718486
-1.23762376	0.35727122	0.00000000	0.81753626
-1.23762376	0.35727122	0.19297569	2.37718486
-1.23762376	0.35727122	0.38595137	0.72441586
-1.23762376	0.35727122	0.57892706	1.89332065
-1.23762376	0.35727122	0.77190274	0.53048485
-1.23762376	0.35727122	0.96487843	1.30474137
-1.23762376	0.71454244	-0.77190274	0.42353513
-1.23762376	0.71454244	-0.57892706	1.47610237
-1.23762376	0.71454244	-0.38595137	0.55258743
-1.23762376	0.71454244	-0.19297569	1.78510308
-1.23762376	0.71454244	0.00000000	0.61040019
-1.23762376	0.71454244	0.19297569	1.78510308
-1.23762376	0.71454244	0.38595137	0.55258743
-1.23762376	0.71454244	0.57892706	1.47610237
-1.23762376	0.71454244	0.77190274	0.42353513
-1.23762376	1.07181366	-0.38595137	1.52925448
-1.23762376	1.07181366	0.00000000	1.65530594
-1.23762376	1.07181366	0.38595137	1.52925448
-0.92821782	-1.25044927	-0.57892706	1.18934468
-0.92821782	-1.25044927	-0.38595137	0.43887584
-0.92821782	-1.25044927	-0.19297569	1.40361015
-0.92821782	-1.25044927	0.00000000	0.47821615
-0.92821782	-1.25044927	0.19297569	1.40361015
-0.92821782	-1.25044927	0.38595137	0.43887584
-0.92821782	-1.25044927	0.57892706	1.18934468
-0.92821782	-0.89317805	-0.96487843	1.30474133
-0.92821782	-0.89317805	-0.77190274	0.53048483
-0.92821782	-0.89317805	-0.57892706	1.89332058
-0.92821782	-0.89317805	-0.38595137	0.72441583
-0.92821782	-0.89317805	-0.19297569	2.37718476
-0.92821782	-0.89317805	0.00000000	0.81753623
-0.92821782	-0.89317805	0.19297569	2.37718476
-0.92821782	-0.89317805	0.38595137	0.72441583
-0.92821782	-0.89317805	0.57892706	1.89332058
-0.92821782	-0.89317805	0.77190274	0.53048483
-0.92821782	-0.89317805	0.96487843	1.30474133
-0.92821782	-0.53590683	-1.15785411	1.84240339
-0.92821782	-0.53590683	-0.77190274	3.04753426
-0.92821782	-0.53590683	-0.38595137	4.62662434
-0.92821782	-0.53590683	0.00000000	5.49568699
-0.92821782	-0.53590683	0.38595137	4.62662434
-0.92821782	-0.53590683	0.77190274	3.04753426
-0.92821782	-0.53590683	1.15785411	1.84240339
-0.92821782	-0.17863561	-1.35082980	1.21640870
-0.92821782	-0.17863561	-1.15785411	0.53760317
-0.92821782	-0.17863561	-0.96487843	2.14620267
-0.92821782	-0.17863561	-0.77190274	0.95210458
-0.92821782	-0.17863561	-0.57892706	3.74891051
-0.92821782	-0.17863561	-0.38595137	1.57446059
-0.92821782	-0.17863561	-0.19297569	5.52663525
-0.92821782	-0.17863561	0.00000000	1.94804814
-0.92821782	-0.17863561	0.19297569	5.52663525
-0.92821782	-0.17863561	0.38595137	1.57446059
-0.92821782	-0.17863561	0.57892706	3.74891051
-0.92821782	-0.17863561	0.77190274	0.95210458
-0.92821782	-0.17863561	0.96487843	2.14620267
-0.92821782	-0.17863561	1.15785411	0.53760317
-0.92821782	-0.17863561	1.35082980	1.21640870
-0.92821782	0.17863561	-1.35082980	1.21640870
-0.92821782	0.17863561	-1.15785411	0.53760317
-0.92821782	0.17863561	-0.96487843	2.14620267
-0.92821782	0.17863561	-0.77190274	0.95210458
-0.92821782	0.17863561	-0.57892706	3.74891051
-0.92821782	0.17863561	-0.38595137	1.57446059
-0.92821782	0.17863561	-0.19297569	5.52663525
-0.92821782	0.17863561	0.00000000	1.94804814
-0.92821782	0.17863561	0.19297569	5.52663525
-0.92821782	0.17863561	0.38595137	1.57446059
-0.92821782	0.17863561	0.57892706	3.74891051
-0.92821782	0.17863561	0.77190274	0.95210458
-0.92821782	0.17863561	0.96487843	2.14620267
-0.92821782	0.17863561	1.15785411	0.53760317
-0.92821782	0.17863561	1.35082980	1.21640870
-0.92821782	0.53590683	-1.15785411	1.84240339
-0.92821782	0.53590683	-0.77190274	3.04753426
-0.92821782	0.53590683	-0.38595137	4.62662434
-0.92821782	0.53590683	0.00000000	5.49568699
-0.92821782	0.53590683	0.38595137	4.62662434
-0.92821782	0.53590683	0.77190274	3.04753426
-0.92821782	0.53590683	1.15785411	1.84240339
-0.92821782	0.89317805	-0.96487843	1.30474133
-0.92821782	0.89317805	-0.77190274	0.53048483
-0.92821782	0.89317805	-0.57892706	1.89332058
-0.92821782	0.89317805	-0.38595137	0.72441583
-0.92821782	0.89317805	-0.19297569	2.37718476
-0.92821782	0.89317805	0.00000000	0.81753623
-0.92821782	0.89317805	0.19297569	2.37718476
-0.92821782	0.89317805	0.38595137	0.72441583
-0.92821782	0.89317805	0.57892706	1.89332058
-0.92821782	0.89317805	0.77190274	0.53048483
-0.92821782	0.89317805	0.96487843	1.30474133
-0.92821782	1.25044927	-0.57892706	1.18934468
-0.92821782	1.25044927	-0.38595137	0.43887584
-0.92821782	1.25044927	-0.19297569	1.40361015
-0.92821782	1.25044927	0.00000000	0.47821615
-0.92821782	1.25044927	0.19297569	1.40361015
-0.92821782	1.25044927	0.38595137	0.43887584
-0.92821782	1.25044927	0.57892706	1.18934468
-0.61881188	-1.42908488	-0.57892706	1.18934466
-0.61881188	-1.42908488	-0.38595137	0.43887584
-0.61881188	-1.42908488	-0.19297569	1.40361012
-0.61881188	-1.42908488	0.00000000	0.47821614
-0.61881188	-1.42908488	0.19297569	1.40361012
-0.61881188	-1.42908488	0.38595137	0.43887584
-0.61881188	-1.42908488	0.57892706	1.18934466
-0.61881188	-1.07181366	-1.15785411	1.49571400
-0.61881188	-1.07181366	-0.77190274	2.30459477
-0.61881188	-1.07181366	-0.38595137	3.21192014
-0.61881188	-1.07181366	0.00000000	3.66057840
-0.61881188	-1.07181366	0.38595137	3.21192014
-0.61881188	-1.07181366	0.77190274	2.30459477
-0.61881188	-1.07181366	1.15785411	1.49571400
-0.61881188	-0.71454244	-1.35082980	1.21640868
-0.61881188	-0.71454244	-1.15785411	0.53760316
-0.61881188	-0.71454244	-0.96487843	2.14620261
-0.61881188	-0.71454244	-0.77190274	0.95210454
-0.61881188	-0.71454244	-0.57892706	3.74891035
-0.61881188	-0.71454244	-0.38595137	1.57446052
-0.61881188	-0.71454244	-0.19297569	5.52663495
-0.61881188	-0.71454244	0.00000000	1.94804804
-0.61881188	-0.71454244	0.19297569	5.52663495
-0.61881188	-0.71454244	0.38595137	1.57446052
-0.61881188	-0.71454244	0.57892706	3.74891035
-0.61881188	-0.71454244	0.77190274	0.95210454
-0.61881188	-0.71454244	0.96487843	2.14620261
-0.61881188	-0.71454244	1.15785411	0.53760316
-0.61881188	-0.71454244	1.35082980	1.21640868
-0.61881188	-0.35727122	-1.35082980	1.51428125
-0.61881188	-0.35727122	-1.15785411	0.70092949
-0.61881188	-0.35727122	-0.96487843	2.99088786
-0.61881188	-0.35727122	-0.77190274	1.44850689
-0.61881188	-0.35727122	-0.57892706	6.29586159
-0.61881188	-0.35727122	-0.38595137	2.90340362
-0.61881188	-0.35727122	-0.19297569	10.93980425
-0.61881188	-0.35727122	0.00000000	3.96375696
-0.61881188	-0.35727122	0.19297569	10.93980425
-0.61881188	-0.35727122	0.38595137	2.90340362
-0.61881188	-0.35727122	0.57892706	6.29586159
-0.61881188	-0.35727122	0.77190274	1.44850689
-0.61881188	-0.35727122	0.96487843	2.99088786
-0.61881188	-0.35727122	1.15785411	0.70092949
-0.61881188	-0.35727122	1.35082980	1.51428125
-0.61881188	0.00000000	-1.54380548	1.58084290
-0.61881188	0.00000000	-1.15785411	3.10005240
-0.61881188	0.00000000	-0.77190274	6.87493759
-0.61881188	0.00000000	-0.38595137	15.10803716
-0.61881188	0.00000000	0.00000000	21.97658705
-0.61881188	0.00000000	0.38595137	15.10803716
-0.61881188	0.00000000	0.77190274	6.87493759
-0.61881188	0.00000000	1.15785411	3.10005240
-0.61881188	0.00000000	1.54380548	1.58084290
-0.61881188	0.35727122	-1.35082980	1.51428125
-0.61881188	0.35727122	-1.15785411	0.70092949
-0.61881188	0.35727122	-0.96487843	2.99088786
-0.61881188	0.35727122	-0.77190274	1.44850689
-0.61881188	0.35727122	-0.57892706	6.29586159
-0.61881188	0.35727122	-0.38595137	2.90340362
-0.61881188	0.35727122	-0.19297569	10.93980425
-0.61881188	0.35727122	0.00000000	3.96375696
-0.61881188	0.35727122	0.19297569	10.93980425
-0.61881188	0.35727122	0.38595137	2.90340362
-0.61881188	0.35727122	0.57892706	6.29586159
-0.61881188	0.35727122	0.77190274	1.44850689
-0.61881188	0.35727122	0.96487843	2.99088786
-0.61881188	0.35727122	1.15785411	0.70092949
-0.61881188	0.35727122	1.35082980	1.51428125
-0.61881188	0.71454244	-1.35082980	1.21640868
-0.61881188	0.71454244	-1.15785411	0.53760316
-0.61881188	0.71454244	-0.96487843	2.14620261
-0.61881188	0.71454244	-0.77190274	0.95210454
-0.61881188	0.71454244	-0.57892706	3.74891035
-0.61881188	0.71454244	-0.38595137	1.57446052
-0.61881188	0.71454244	-0.19297569	5.52663495
-0.61881188	0.71454244	0.00000000	1.94804804
-0.61881188	0.71454244	0.19297569	5.52663495
-0.61881188	0.71454244	0.38595137	1.57446052
-0.61881188	0.71454244	0.57892706	3.74891035
-0.61881188	0.71454244	0.77190274	0.95210454
-0.61881188	0.71454244	0.96487843	2.14620261
-0.61881188	0.71454244	1.15785411	0.53760316
-0.61881188	0.71454244	1.35082980	1.21640868
-0.61881188	1.07181366	-1.15785411	1.49571400
-0.61881188	1.07181366	-0.77190274	2.30459477
-0.61881188	1.07181366	-0.38595137	3.21192014
-0.61881188	1.07181366	0.00000000	3.66057840
-0.61881188	1.07181366	0.38595137	3.21192014
-0.61881188	1.07181366	0.77190274	2.30459477
-0.61881188	1.07181366	1.15785411	1.49571400
-0.61881188	1.42908488	-0.57892706	1.18934466
-0.61881188	1.42908488	-0.38595137	0.43887584
-0.61881188	1.42908488	-0.19297569	1.40361012
-0.61881188	1.42908488	0.00000000	0.47821614
-0.61881188	1.42908488	0.19297569	1.40361012
-0.61881188	1.42908488	0.38595137	0.43887584
-0.61881188	1.42908488	0.57892706	1.18934466
-0.30940594	-1.60772049	-0.38595137	1.52925439
-0.30940594	-1.60772049	0.00000000	1.65530585
-0.30940594	-1.60772049	0.38595137	1.52925439
-0.30940594	-1.25044927	-0.96487843	1.30474129
-0.30940594	-1.25044927	-0.77190274	0.53048481
-0.30940594	-1.25044927	-0.57892706	1.89332051
-0.30940594	-1.25044927	-0.38595137	0.72441580
-0.30940594	-1.25044927	-0.19297569	2.37718465
-0.30940594	-1.25044927	0.00000000	0.81753619
-0.30940594	-1.25044927	0.19297569	2.37718465
-0.30940594	-1.25044927	0.38595137	0.72441580
-0.30940594	-1.25044927	0.57892706	1.89332051
-0.30940594	-1.25044927	0.77190274	0.53048481
-0.30940594	-1.25044927	0.96487843	1.30474129
-0.30940594	-0.89317805	-1.35082980	1.21640866
-0.30940594	-0.89317805	-1.15785411	0.53760315
-0.30940594	-0.89317805	-0.96487843	2.14620257
-0.30940594	-0.89317805	-0.77190274	0.95210452
-0.30940594	-0.89317805	-0.57892706	3.74891026
-0.30940594	-0.89317805	-0.38595137	1.57446047
-0.30940594	-0.89317805	-0.19297569	5.52663478
-0.30940594	-0.89317805	0.00000000	1.94804797
-0.30940594	-0.89317805	0.19297569	5.52663478
-0.30940594	-0.89317805	0.38595137	1.57446047
-0.30940594	-0.89317805	0.57892706	3.74891026
-0.30940594	-0.89317805	0.77190274	0.95210452
-0.30940594	-0.89317805	0.96487843	2.14620257
-0.30940594	-0.89317805	1.15785411	0.53760315
-0.30940594	-0.89317805	1.35082980	1.21640866
-0.30940594	-0.53590683	-1.54380548	1.58084288
-0.30940594	-0.53590683	-1.15785411	3.10005234
-0.30940594	-0.53590683	-0.77190274	6.87493738
-0.30940594	-0.53590683	-0.38595137	15.10803643
-0.30940594	-0.53590683	0.00000000	21.97658569
-0.30940594	-0.53590683	0.38595137	15.10803643
-0.30940594	-0.53590683	0.77190274	6.87493738
-0.30940594	-0.53590683	1.15785411	3.10005234
-0.30940594	-0.53590683	1.54380548	1.58084288
-0.30940594	-0.17863561	-1.54380548	0.45491382
-0.30940594	-0.17863561	-1.35082980	1.95110155
-0.30940594	-0.17863561	-1.15785411	0.97144591
-0.30940594	-0.17863561	-0.96487843	4.62283638
-0.30940594	-0.17863561	-0.77190274	2.57954933
-0.30940594	-0.17863561	-0.57892706	13.32553114
-0.30940594	-0.17863561	-0.38595137	7.78304626
-0.30940594	-0.17863561	-0.19297569	39.02383492
-0.30940594	-0.17863561	0.00000000	16.42677947
-0.30940594	-0.17863561	0.19297569	39.02383492
-0.30940594	-0.17863561	0.38595137	7.78304626
-0.30940594	-0.17863561	0.57892706	13.32553114
-0.30940594	-0.17863561	0.77190274	2.57954933
-0.30940594	-0.17863561	0.96487843	4.62283638
-0.30940594	-0.17863561	1.15785411	0.97144591
-0.30940594	-0.17863561	1.35082980	1.95110155
-0.30940594	-0.17863561	1.54380548	0.45491382
-0.30940594	0.17863561	-1.54380548	0.45491382
-0.30940594	0.17863561	-1.35082980	1.95110155
-0.30940594	0.17863561	-1.15785411	0.97144591
-0.30940594	0.17863561	-0.96487843	4.62283638
-0.30940594	0.17863561	-0.77190274	2.57954933
-0.30940594	0.17863561	-0.57892706	13.32553114
-0.30940594	0.17863561	-0.38595137	7.78304626
-0.30940594	0.17863561	-0.19297569	39.02383492
-0.30940594	0.17863561	0.00000000	16.42677947
-0.30940594	0.17863561	0.19297569	39.02383492
-0.30940594	0.17863561	0.38595137	7.78304626
-0.30940594	0.17863561	0.57892706	13.32553114
-0.30940594	0.17863561	0.77190274	2.57954933
-0.30940594	0.17863561	0.96487843	4.62283638
-0.30940594	0.17863561	1.15785411	0.97144591
-0.30940594	0.17863561	1.35082980	1.95110155
-0.30940594	0.17863561	1.54380548	0.45491382
-0.30940594	0.53590683	-1.54380548	1.58084288
-0.30940594	0.53590683	-1.15785411	3.10005234
-0.30940594	0.53590683	-0.77190274	6.87493738
-0.30940594	0.53590683	-0.38595137	15.10803643
-0.30940594	0.53590683	0.00000000	21.97658569
-0.30940594	0.53590683	0.38595137	15.10803643
-0.30940594	0.53590683	0.77190274	6.87493738
-0.30940594	0.53590683	1.15785411	3.10005234
-0.30940594	0.53590683	1.54380548	1.58084288
-0.30940594	0.89317805	-1.35082980	1.21640866
-0.30940594	0.89317805	-1.15785411	0.53760315
-0.30940594	0.89317805	-0.96487843	2.14620257
-0.30940594	0.89317805	-0.77190274	0.95210452
-0.30940594	0.89317805	-0.57892706	3.74891026
-0.30940594	0.89317805	-0.38595137	1.57446047
-0.30940594	0.89317805	-0.19297569	5.52663478
-0.30940594	0.89317805	0.00000000	1.94804797
-0.30940594	0.89317805	0.19297569	5.52663478
-0.30940594	0.89317805	0.38595137	1.57446047
-0.30940594	0.89317805	0.57892706	3.74891026
-0.30940594	0.89317805	0.77190274	0.95210452
-0.30940594	0.89317805	0.96487843	2.14620257
-0.30940594	0.89317805	1.15785411	0.53760315
-0.30940594	0.89317805	1.35082980	1.21640866
-0.30940594	1.25044927	-0.96487843	1.30474129
-0.30940594	1.25044927	-0.77190274	0.53048481
-0.30940594	1.25044927	-0.57892706	1.89332051
-0.30940594	1.25044927	-0.38595137	0.72441580
-0.30940594	1.25044927	-0.19297569	2.37718465
-0.30940594	1.25044927	0.00000000	0.81753619
-0.30940594	1.25044927	0.19297569	2.37718465
-0.30940594	1.25044927	0.38595137	0.72441580
-0.30940594	1.25044927	0.57892706	1.89332051
-0.30940594	1.25044927	0.77190274	0.53048481
-0.30940594	1.25044927	0.96487843	1.30474129
-0.30940594	1.60772049	-0.38595137	1.52925439
-0.30940594	1.60772049	0.00000000	1.65530585
-0.30940594	1.60772049	0.38595137	1.52925439
0.00000000	-1.42908488	-0.77190274	0.42353510
0.00000000	-1.42908488	-0.57892706	1.47610226
0.00000000	-1.42908488	-0.38595137	0.55258739
0.00000000	-1.42908488	-0.19297569	1.78510295
0.00000000	-1.42908488	0.00000000	0.61040014
0.00000000	-1.42908488	0.19297569	1.78510295
0.00000000	-1.42908488	0.38595137	0.55258739
0.00000000	-1.42908488	0.57892706	1.47610226
0.00000000	-1.42908488	0.77190274	0.42353510
0.00000000	-1.07181366	-1.15785411	1.84240332
0.00000000	-1.07181366	-0.77190274	3.04753410
0.00000000	-1.07181366	-0.38595137	4.62662401
0.00000000	-1.07181366	0.00000000	5.49568656
0.00000000	-1.07181366	0.38595137	4.62662401
0.00000000	-1.07181366	0.77190274	3.04753410
0.00000000	-1.07181366	1.15785411	1.84240332
0.00000000	-0.71454244	-1.35082980	1.51428122
0.00000000	-0.71454244	-1.15785411	0.70092947
0.00000000	-0.71454244	-0.96487843	2.99088777
0.00000000	-0.71454244	-0.77190274	1.44850684
0.00000000	-0.71454244	-0.57892706	6.29586130
0.00000000	-0.71454244	-0.38595137	2.90340346
0.00000000	-0.71454244	-0.19297569	10.93980357
0.00000000	-0.71454244	0.00000000	3.96375670
0.00000000	-0.71454244	0.19297569	10.93980357
0.00000000	-0.71454244	0.38595137	2.90340346
0.00000000	-0.71454244	0.57892706	6.29586130
0.00000000	-0.71454244	0.77190274	1.44850684
0.00000000	-0.71454244	0.96487843	2.99088777
0.00000000	-0.71454244	1.15785411	0.70092947
0.00000000	-0.71454244	1.35082980	1.51428122
0.00000000	-0.35727122	-1.54380548	0.45491381
0.00000000	-0.35727122	-1.35082980	1.95110154
0.00000000	-0.35727122	-1.15785411	0.97144590
0.00000000	-0.35727122	-0.96487843	4.62283633
0.00000000	-0.35727122	-0.77190274	2.57954930
0.00000000	-0.35727122	-0.57892706	13.32553090
0.00000000	-0.35727122	-0.38595137	7.78304605
0.00000000	-0.35727122	-0.19297569	39.02383332
0.00000000	-0.35727122	0.00000000	16.42677866
0.00000000	-0.35727122	0.19297569	39.02383332
0.00000000	-0.35727122	0.38595137	7.78304605
0.00000000	-0.35727122	0.57892706	13.32553090
0.00000000	-0.35727122	0.77190274	2.57954930
0.00000000	-0.35727122	0.96487843	4.62283633
0.00000000	-0.35727122	1.15785411	0.97144590
0.00000000	-0.35727122	1.35082980	1.95110154
0.00000000	-0.35727122	1.54380548	0.45491381
0.00000000	0.00000000	-1.54380548	1.96117781
0.00000000	0.00000000	-1.15785411	4.41875325
0.00000000	0.00000000	-0.77190274	13.17605556
0.00000000	0.00000000	-0.38595137	57.17928423
0.00000000	0.00000000	0.38595137	57.17928423
0.00000000	0.00000000	0.77190274	13.17605556
0.00000000	0.00000000	1.15785411	4.41875325
0.00000000	0.00000000	1.54380548	1.96117781
0.00000000	0.35727122	-1.54380548	0.45491381
0.00000000	0.35727122	-1.35082980	1.95110154
0.00000000	0.35727122	-1.15785411	0.97144590
0.00000000	0.35727122	-0.96487843	4.62283633
0.00000000	0.35727122	-0.77190274	2.57954930
0.00000000	0.35727122	-0.57892706	13.32553090
0.00000000	0.35727122	-0.38595137	7.78304605
0.00000000	0.35727122	-0.19297569	39.02383332
0.00000000	0.35727122	0.00000000	16.42677866
0.00000000	0.35727122	0.19297569	39.02383332
0.00000000	0.35727122	0.38595137	7.78304605
0.00000000	0.35727122	0.57892706	13.32553090
0.00000000	0.35727122	0.77190274	2.57954930
0.00000000	0.35727122	0.96487843	4.62283633
0.00000000	0.35727122	1.15785411	0.97144590
0.00000000	0.35727122	1.35082980	1.95110154
0.00000000	0.35727122	1.54380548	0.45491381
0.00000000	0.71454244	-1.35082980	1.51428122
0.00000000	0.71454244	-1.15785411	0.70092947
0.00000000	0.71454244	-0.96487843	2.99088777
0.00000000	0.71454244	-0.77190274	1.44850684
0.00000000	0.71454244	-0.57892706	6.29586130
0.00000000	0.71454244	-0.38595137	2.90340346
0.00000000	0.71454244	-0.19297569	10.93980357
0.00000000	0.71454244	0.00000000	3.96375670
0.00000000	0.71454244	0.19297569	10.93980357
0.00000000	0.71454244	0.38595137	2.90340346
0.00000000	0.71454244	0.57892706	6.29586130
0.00000000	0.71454244	0.77190274	1.44850684
0.00000000	0.71454244	0.96487843	2.99088777
0.00000000	0.71454244	1.15785411	0.70092947
0.00000000	0.71454244	1.35082980	1.51428122
0.00000000	1.07181366	-1.15785411	1.84240332
0.00000000	1.07181366	-0.77190274	3.04753410
0.00000000	1.07181366	-0.38595137	4.62662401
0.00000000	1.07181366	0.00000000	5.49568656
0.00000000	1.07181366	0.38595137	4.62662401
0.00000000	1.07181366	0.77190274	3.04753410
0.00000000	1.07181366	1.15785411	1.84240332
0.00000000	1.42908488	-0.77190274	0.42353510
0.00000000	1.42908488	-0.57892706	1.47610226
0.00000000	1.42908488	-0.38595137	0.55258739
0.00000000	1.42908488	-0.19297569	1.78510295
0.00000000	1.42908488	0.00000000	0.61040014
0.00000000	1.42908488	0.19297569	1.78510295
0.00000000	1.42908488	0.38595137	0.55258739
0.00000000	1.42908488	0.57892706	1.47610226
0.00000000	1.42908488	0.77190274	0.42353510
0.30940594	-1.60772049	-0.38595137	1.52925439
0.30940594	-1.60772049	0.00000000	1.65530585
0.30940594	-1.60772049	0.38595137	1.52925439
0.30940594	-1.25044927	-0.96487843	1.30474129
0.30940594	-1.25044927	-0.77190274	0.53048481
0.30940594	-1.25044927	-0.57892706	1.89332051
0.30940594	-1.25044927	-0.38595137	0.72441580
0.30940594	-1.25044927	-0.19297569	2.37718465
0.30940594	-1.25044927	0.00000000	0.81753619
0.30940594	-1.25044927	0.19297569	2.37718465
0.30940594	-1.25044927	0.38595137	0.72441580
0.30940594	-1.25044927	0.57892706	1.89332051
0.30940594	-1.25044927	0.77190274	0.53048481
0.30940594	-1.25044927	0.96487843	1.30474129
0.30940594	-0.89317805	-1.35082980	1.21640866
0.30940594	-0.89317805	-1.15785411	0.53760315
0.30940594	-0.89317805	-0.96487843	2.14620257
0.30940594	-0.89317805	-0.77190274	0.95210452
0.30940594	-0.89317805	-0.57892706	3.74891026
0.30940594	-0.89317805	-0.38595137	1.57446047
0.30940594	-0.89317805	-0.19297569	5.52663478
0.30940594	-0.89317805	0.00000000	1.94804797
0.30940594	-0.89317805	0.19297569	5.52663478
0.30940594	-0.89317805	0.38595137	1.57446047
0.30940594	-0.89317805	0.57892706	3.74891026
0.30940594	-0.89317805	0.77190274	0.95210452
0.30940594	-0.89317805	0.96487843	2.14620257
0.30940594	-0.89317805	1.15785411	0.53760315
0.30940594	-0.89317805	1.35082980	1.21640866
0.30940594	-0.53590683	-1.54380548	1.58084288
0.30940594	-0.53590683	-1.15785411	3.10005234
0.30940594	-0.53590683	-0.77190274	6.87493738
0.30940594	-0.53590683	-0.38595137	15.10803643
0.30940594	-0.53590683	0.00000000	21.97658569
0.30940594	-0.53590683	0.38595137	15.10803643
0.30940594	-0.53590683	0.77190274	6.87493738
0.30940594	-0.53590683	1.15785411	3.10005234
0.30940594	-0.53590683	1.54380548	1.58084288
0.30940594	-0.17863561	-1.54380548	0.45491382
0.30940594	-0.17863561	-1.35082980	1.95110155
0.30940594	-0.17863561	-1.15785411	0.97144591
0.30940594	-0.17863561	-0.96487843	4.62283638
0.30940594	-0.17863561	-0.77190274	2.57954933
0.30940594	-0.17863561	-0.57892706	13.32553114
0.30940594	-0.17863561	-0.38595137	7.78304626
0.30940594	-0.17863561	-0.19297569	39.02383492
0.30940594	-0.17863561	0.00000000	16.42677947
0.30940594	-0.17863561	0.19297569	39.02383492
0.30940594	-0.17863561	0.38595137	7.78304626
0.30940594	-0.17863561	0.57892706	13.32553114
0.30940594	-0.17863561	0.77190274	2.57954933
0.30940594	-0.17863561	0.96487843	4.62283638
0.30940594	-0.17863561	1.15785411	0.97144591
0.30940594	-0.17863561	1.35082980	1.95110155
0.30940594	-0.17863561	1.54380548	0.45491382
0.30940594	0.17863561	-1.54380548	0.45491382
0.30940594	0.17863561	-1.35082980	1.95110155
0.30940594	0.17863561	-1.15785411	0.97144591
0.30940594	0.17863561	-0.96487843	4.62283638
0.30940594	0.17863561	-0.77190274	2.57954933
0.30940594	0.17863561	-0.57892706	13.32553114
0.30940594	0.17863561	-0.38595137	7.78304626
0.30940594	0.17863561	-0.19297569	39.02383492
0.30940594	0.17863561	0.00000000	16.42677947
0.30940594	0.17863561	0.19297569	39.02383492
0.30940594	0.17863561	0.38595137	7.78304626
0.30940594	0.17863561	0.57892706	13.32553114
0.30940594	0.17863561	0.77190274	2.57954933
0.30940594	0.17863561	0.96487843	4.62283638
0.30940594	0.17863561	1.15785411	0.97144591
0.30940594	0.17863561	1.35082980	1.95110155
0.30940594	0.17863561	1.54380548	0.45491382
0.30940594	0.53590683	-1.54380548	1.58084288
0.30940594	0.53590683	-1.15785411	3.10005234
0.30940594	0.53590683	-0.77190274	6.87493738
0.30940594	0.53590683	-0.38595137	15.10803643
0.30940594	0.53590683	0.00000000	21.97658569
0.30940594	0.53590683	0.38595137	15.10803643
0.30940594	0.53590683	0.77190274	6.87493738
0.30940594	0.53590683	1.15785411	3.10005234
0.30940594	0.53590683	1.54380548	1.58084288
0.30940594	0.89317805	-1.35082980	1.21640866
0.30940594	0.89317805	-1.15785411	0.53760315
0.30940594	0.89317805	-0.96487843	2.14620257
0.30940594	0.89317805	-0.77190274	0.95210452
0.30940594	0.89317805	-0.57892706	3.74891026
0.30940594	0.89317805	-0.38595137	1.57446047
0.30940594	0.89317805	-0.19297569	5.52663478
0.30940594	0.89317805	0.00000000	1.94804797
0.30940594	0.89317805	0.19297569	5.52663478
0.30940594	0.89317805	0.38595137	1.57446047
0.30940594	0.89317805	0.57892706	3.74891026
0.30940594	0.89317805	0.77190274	0.95210452
0.30940594	0.89317805	0.96487843	2.14620257
0.30940594	0.89317805	1.15785411	0.53760315
0.30940594	0.89317805	1.35082980	1.21640866
0.30940594	1.25044927	-0.96487843	1.30474129
0.30940594	1.25044927	-0.77190274	0.53048481
0.30940594	1.25044927	-0.57892706	1.89332051
0.30940594	1.25044927	-0.38595137	0.72441580
0.30940594	1.25044927	-0.19297569	2.37718465
0.30940594	1.25044927	0.00000000	0.81753619
0.30940594	1.25044927	0.19297569	2.37718465
0.30940594	1.25044927	0.38595137	0.72441580
0.30940594	1.25044927	0.57892706	1.89332051
0.30940594	1.25044927	0.77190274	0.53048481
0.30940594	1.25044927	0.96487843	1.30474129
0.30940594	1.60772049	-0.38595137	1.52925439
0.30940594	1.60772049	0.00000000	1.65530585
0.30940594	1.60772049	0.38595137	1.52925439
0.61881188	-1.42908488	-0.57892706	1.18934466
0.61881188	-1.42908488	-0.38595137	0.43887584
0.61881188	-1.42908488	-0.19297569	1.40361012
0.61881188	-1.42908488	0.00000000	0.47821614
0.61881188	-1.42908488	0.19297569	1.40361012
0.61881188	-1.42908488	0.38595137	0.43887584
0.61881188	-1.42908488	0.57892706	1.18934466
0.61881188	-1.07181366	-1.15785411	1.49571400
0.61881188	-1.07181366	-0.77190274	2.30459477
0.61881188	-1.07181366	-0.38595137	3.21192014
0.61881188	-1.07181366	0.00000000	3.66057840
0.61881188	-1.07181366	0.38595137	3.21192014
0.61881188	-1.07181366	0.77190274	2.30459477
0.61881188	-1.07181366	1.15785411	1.49571400
0.61881188	-0.71454244	-1.35082980	1.21640868
0.61881188	-0.71454244	-1.15785411	0.53760316
0.61881188	-0.71454244	-0.96487843	2.14620261
0.61881188	-0.71454244	-0.77190274	0.95210454
0.61881188	-0.71454244	-0.57892706	3.74891035
0.61881188	-0.71454244	-0.38595137	1.57446052
0.61881188	-0.71454244	-0.19297569	5.52663495
0.61881188	-0.71454244	0.00000000	1.94804804
0.61881188	-0.71454244	0.19297569	5.52663495
0.61881188	-0.71454244	0.38595137	1.57446052
0.61881188	-0.71454244	0.57892706	3.74891035
0.61881188	-0.71454244	0.77190274	0.95210454
0.61881188	-0.71454244	0.96487843	2.14620261
0.61881188	-0.71454244	1.15785411	0.53760316
0.61881188	-0.71454244	1.35082980	1.21640868
0.61881188	-0.35727122	-1.35082980	1.51428125
0.61881188	-0.35727122	-1.15785411	0.70092949
0.61881188	-0.35727122	-0.96487843	2.99088786
0.61881188	-0.35727122	-0.77190274	1.44850689
0.61881188	-0.35727122	-0.57892706	6.29586159
0.61881188	-0.35727122	-0.38595137	2.90340362
0.61881188	-0.35727122	-0.19297569	10.93980425
0.61881188	-0.35727122	0.00000000	3.96375696
0.61881188	-0.35727122	0.19297569	10.93980425
0.61881188	-0.35727122	0.38595137	2.90340362
0.61881188	-0.35727122	0.57892706	6.29586159
0.61881188	-0.35727122	0.77190274	1.44850689
0.61881188	-0.35727122	0.96487843	2.99088786
0.61881188	-0.35727122	1.15785411	0.70092949
0.61881188	-0.35727122	1.35082980	1.51428125
0.61881188	0.00000000	-1.54380548	1.58084290
0.61881188	0.00000000	-1.15785411	3.10005240
0.61881188	0.00000000	-0.77190274	6.87493759
0.61881188	0.00000000	-0.38595137	15.10803716
0.61881188	0.00000000	0.00000000	21.97658705
0.61881188	0.00000000	0.38595137	15.10803716
0.61881188	0.00000000	0.77190274	6.87493759
0.61881188	0.00000000	1.15785411	3.10005240
0.61881188	0.00000000	1.54380548	1.58084290
0.61881188	0.35727122	-1.35082980	1.51428125
0.61881188	0.35727122	-1.15785411	0.70092949
0.61881188	0.35727122	-0.96487843	2.99088786
0.61881188	0.35727122	-0.77190274	1.44850689
0.61881188	0.35727122	-0.57892706	6.29586159
0.61881188	0.35727122	-0.38595137	2.90340362
0.61881188	0.35727122	-0.19297569	10.93980425
0.61881188	0.35727122	0.00000000	3.96375696
0.61881188	0.35727122	0.19297569	10.93980425
0.61881188	0.35727122	0.38595137	2.90340362
0.61881188	0.35727122	0.57892706	6.29586159
0.61881188	0.35727122	0.77190274	1.44850689
0.61881188	0.35727122	0.96487843	2.99088786
0.61881188	0.35727122	1.15785411	0.70092949
0.61881188	0.35727122	1.35082980	1.51428125
0.61881188	0.71454244	-1.35082980	1.21640868
0.61881188	0.71454244	-1.15785411	0.53760316
0.61881188	0.71454244	-0.96487843	2.14620261
0.61881188	0.71454244	-0.77190274	0.95210454
0.61881188	0.71454244	-0.57892706	3.74891035
0.61881188	0.71454244	-0.38595137	1.57446052
0.61881188	0.71454244	-0.19297569	5.52663495
0.61881188	0.71454244	0.00000000	1.94804804
0.61881188	0.71454244	0.19297569	5.52663495
0.61881188	0.71454244	0.38595137	1.57446052
0.61881188	0.71454244	0.57892706	3.74891035
0.61881188	0.71454244	0.77190274	0.95210454
0.61881188	0.71454244	0.96487843	2.14620261
0.61881188	0.71454244	1.15785411	0.53760316