Position data Generated by SPaMD
4000	atoms
1	atom types
0.000000		32.340000	xlo xhi
0.000000		56.014523	ylo yhi
0.000000		51.680000	zlo zhi

Atoms

1	1	0.000000	0.000000	0.000000
2	1	1.617000	2.800726	0.000000
3	1	0.000000	3.734302	2.584000
4	1	1.617000	0.933575	2.584000
5	1	0.000000	0.000000	5.168000
6	1	1.617000	2.800726	5.168000
7	1	0.000000	3.734302	7.752000
8	1	1.617000	0.933575	7.752000
9	1	0.000000	0.000000	10.336000
10	1	1.617000	2.800726	10.336000
11	1	0.000000	3.734302	12.920000
12	1	1.617000	0.933575	12.920000
13	1	0.000000	0.000000	15.504000
14	1	1.617000	2.800726	15.504000
15	1	0.000000	3.734302	18.088000
16	1	1.617000	0.933575	18.088000
17	1	0.000000	0.000000	20.672000
18	1	1.617000	2.800726	20.672000
19	1	0.000000	3.734302	23.256000
20	1	1.617000	0.933575	23.256000
21	1	0.000000	0.000000	25.840000
22	1	1.617000	2.800726	25.840000
23	1	0.000000	3.734302	28.424000
24	1	1.617000	0.933575	28.424000
25	1	0.000000	0.000000	31.008000
26	1	1.617000	2.800726	31.008000
27	1	0.000000	3.734302	33.592000
28	1	1.617000	0.933575	33.592000
29	1	0.000000	0.000000	36.176000
30	1	1.617000	2.800726	36.176000
31	1	0.000000	3.734302	38.760000
32	1	1.617000	0.933575	38.760000
33	1	0.000000	0.000000	41.344000
34	1	1.617000	2.800726	41.344000
35	1	0.000000	3.734302	43.928000
36	1	1.617000	0.933575	43.928000
37	1	0.000000	0.000000	46.512000
38	1	1.617000	2.800726	46.512000
39	1	0.000000	3.734302	49.096000
40	1	1.617000	0.933575	49.096000
41	1	0.000000	5.601452	0.000000
42	1	1.617000	8.402178	0.000000
43	1	0.000000	9.335754	2.584000
44	1	1.617000	6.535028	2.584000
45	1	0.000000	5.601452	5.168000
46	1	1.617000	8.402178	5.168000
47	1	0.000000	9.335754	7.752000
48	1	1.617000	6.535028	7.752000
49	1	0.000000	5.601452	10.336000
50	1	1.617000	8.402178	10.336000
51	1	0.000000	9.335754	12.920000
52	1	1.617000	6.535028	12.920000
53	1	0.000000	5.601452	15.504000
54	1	1.617000	8.402178	15.504000
55	1	0.000000	9.335754	18.088000
56	1	1.617000	6.535028	18.088000
57	1	0.000000	5.601452	20.672000
58	1	1.617000	8.402178	20.672000
59	1	0.000000	9.335754	23.256000
60	1	1.617000	6.535028	23.256000
61	1	0.000000	5.601452	25.840000
62	1	1.617000	8.402178	25.840000
63	1	0.000000	9.335754	28.424000
64	1	1.617000	6.535028	28.424000
65	1	0.000000	5.601452	31.008000
66	1	1.617000	8.402178	31.008000
67	1	0.000000	9.335754	33.592000
68	1	1.617000	6.535028	33.592000
69	1	0.000000	5.601452	36.176000
70	1	1.617000	8.402178	36.176000
71	1	0.000000	9.335754	38.760000
72	1	1.617000	6.535028	38.760000
73	1	0.000000	5.601452	41.344000
74	1	1.617000	8.402178	41.344000
75	1	0.000000	9.335754	43.928000
76	1	1.617000	6.535028	43.928000
77	1	0.000000	5.601452	46.512000
78	1	1.617000	8.402178	46.512000
79	1	0.000000	9.335754	49.096000
80	1	1.617000	6.535028	49.096000
81	1	0.000000	11.202905	0.000000
82	1	1.617000	14.003631	0.000000
83	1	0.000000	14.937206	2.584000
84	1	1.617000	12.136480	2.584000
85	1	0.000000	11.202905	5.168000
86	1	1.617000	14.003631	5.168000
87	1	0.000000	14.937206	7.752000
88	1	1.617000	12.136480	7.752000
89	1	0.000000	11.202905	10.336000
90	1	1.617000	14.003631	10.336000
91	1	0.000000	14.937206	12.920000
92	1	1.617000	12.136480	12.920000
93	1	0.000000	11.202905	15.504000
94	1	1.617000	14.003631	15.504000
95	1	0.000000	14.937206	18.088000
96	1	1.617000	12.136480	18.088000
97	1	0.000000	11.202905	20.672000
98	1	1.617000	14.003631	20.672000
99	1	0.000000	14.937206	23.256000
100	1	1.617000	12.136480	23.256000
101	1	0.000000	11.202905	25.840000
102	1	1.617000	14.003631	25.840000
103	1	0.000000	14.937206	28.424000
104	1	1.617000	12.136480	28.424000
105	1	0.000000	11.202905	31.008000
106	1	1.617000	14.003631	31.008000
107	1	0.000000	14.937206	33.592000
108	1	1.617000	12.136480	33.592000
109	1	0.000000	11.202905	36.176000
110	1	1.617000	14.003631	36.176000
111	1	0.000000	14.937206	38.760000
112	1	1.617000	12.136480	38.760000
113	1	0.000000	11.202905	41.344000
114	1	1.617000	14.003631	41.344000
115	1	0.000000	14.937206	43.928000
116	1	1.617000	12.136480	43.928000
117	1	0.000000	11.202905	46.512000
118	1	1.617000	14.003631	46.512000
119	1	0.000000	14.937206	49.096000
120	1	1.617000	12.136480	49.096000
121	1	0.000000	16.804357	0.000000
122	1	1.617000	19.605083	0.000000
123	1	0.000000	20.538658	2.584000
124	1	1.617000	17.737932	2.584000
125	1	0.000000	16.804357	5.168000
126	1	1.617000	19.605083	5.168000
127	1	0.000000	20.538658	7.752000
128	1	1.617000	17.737932	7.752000
129	1	0.000000	16.804357	10.336000
130	1	1.617000	19.605083	10.336000
131	1	0.000000	20.538658	12.920000
132	1	1.617000	17.737932	12.920000
133	1	0.000000	16.804357	15.504000
134	1	1.617000	19.605083	15.504000
135	1	0.000000	20.538658	18.088000
136	1	1.617000	17.737932	18.088000
137	1	0.000000	16.804357	20.672000
138	1	1.617000	19.605083	20.672000
139	1	0.000000	20.538658	23.256000
140	1	1.617000	17.737932	23.256000
141	1	0.000000	16.804357	25.840000
142	1	1.617000	19.605083	25.840000
143	1	0.000000	20.538658	28.424000
144	1	1.617000	17.737932	28.424000
145	1	0.000000	16.804357	31.008000
146	1	1.617000	19.605083	31.008000
147	1	0.000000	20.538658	33.592000
148	1	1.617000	17.737932	33.592000
149	1	0.000000	16.804357	36.176000
150	1	1.617000	19.605083	36.176000
151	1	0.000000	20.538658	38.760000
152	1	1.617000	17.737932	38.760000
153	1	0.000000	16.804357	41.344000
154	1	1.617000	19.605083	41.344000
155	1	0.000000	20.538658	43.928000
156	1	1.617000	17.737932	43.928000
157	1	0.000000	16.804357	46.512000
158	1	1.617000	19.605083	46.512000
159	1	0.000000	20.538658	49.096000
160	1	1.617000	17.737932	49.096000
161	1	0.000000	22.405809	0.000000
162	1	1.617000	25.206535	0.000000
163	1	0.000000	26.140111	2.584000
164	1	1.617000	23.339385	2.584000
165	1	0.000000	22.405809	5.168000
166	1	1.617000	25.206535	5.168000
167	1	0.000000	26.140111	7.752000
168	1	1.617000	23.339385	7.752000
169	1	0.000000	22.405809	10.336000
170	1	1.617000	25.206535	10.336000
171	1	0.000000	26.140111	12.920000
172	1	1.617000	23.339385	12.920000
173	1	0.000000	22.405809	15.504000
174	1	1.617000	25.206535	15.504000
175	1	0.000000	26.140111	18.088000
176	1	1.617000	23.339385	18.088000
177	1	0.000000	22.405809	20.672000
178	1	1.617000	25.206535	20.672000
179	1	0.000000	26.140111	23.256000
180	1	1.617000	23.339385	23.256000
181	1	0.000000	22.405809	25.840000
182	1	1.617000	25.206535	25.840000
183	1	0.000000	26.140111	28.424000
184	1	1.617000	23.339385	28.424000
185	1	0.000000	22.405809	31.008000
186	1	1.617000	25.206535	31.008000
187	1	0.000000	26.140111	33.592000
188	1	1.617000	23.339385	33.592000
189	1	0.000000	22.405809	36.176000
190	1	1.617000	25.206535	36.176000
191	1	0.000000	26.140111	38.760000
192	1	1.617000	23.339385	38.760000
193	1	0.000000	22.405809	41.344000
194	1	1.617000	25.206535	41.344000
195	1	0.000000	26.140111	43.928000
196	1	1.617000	23.339385	43.928000
197	1	0.000000	22.405809	46.512000
198	1	1.617000	25.206535	46.512000
199	1	0.000000	26.140111	49.096000
200	1	1.617000	23.339385	49.096000
201	1	0.000000	28.007262	0.000000
202	1	1.617000	30.807988	0.000000
203	1	0.000000	31.741563	2.584000
204	1	1.617000	28.940837	2.584000
205	1	0.000000	28.007262	5.168000
206	1	1.617000	30.807988	5.168000
207	1	0.000000	31.741563	7.752000
208	1	1.617000	28.940837	7.752000
209	1	0.000000	28.007262	10.336000
210	1	1.617000	30.807988	10.336000
211	1	0.000000	31.741563	12.920000
212	1	1.617000	28.940837	12.920000
213	1	0.000000	28.007262	15.504000
214	1	1.617000	30.807988	15.504000
215	1	0.000000	31.741563	18.088000
216	1	1.617000	28.940837	18.088000
217	1	0.000000	28.007262	20.672000
218	1	1.617000	30.807988	20.672000
219	1	0.000000	31.741563	23.256000
220	1	1.617000	28.940837	23.256000
221	1	0.000000	28.007262	25.840000
222	1	1.617000	30.807988	25.840000
223	1	0.000000	31.741563	28.424000
224	1	1.617000	28.940837	28.424000
225	1	0.000000	28.007262	31.008000
226	1	1.617000	30.807988	31.008000
227	1	0.000000	31.741563	33.592000
228	1	1.617000	28.940837	33.592000
229	1	0.000000	28.007262	36.176000
230	1	1.617000	30.807988	36.176000
231	1	0.000000	31.741563	38.760000
232	1	1.617000	28.940837	38.760000
233	1	0.000000	28.007262	41.344000
234	1	1.617000	30.807988	41.344000
235	1	0.000000	31.741563	43.928000
236	1	1.617000	28.940837	43.928000
237	1	0.000000	28.007262	46.512000
238	1	1.617000	30.807988	46.512000
239	1	0.000000	31.741563	49.096000
240	1	1.617000	28.940837	49.096000
241	1	0.000000	33.608714	0.000000
242	1	1.617000	36.409440	0.000000
243	1	0.000000	37.343015	2.584000
244	1	1.617000	34.542289	2.584000
245	1	0.000000	33.608714	5.168000
246	1	1.617000	36.409440	5.168000
247	1	0.000000	37.343015	7.752000
248	1	1.617000	34.542289	7.752000
249	1	0.000000	33.608714	10.336000
250	1	1.617000	36.409440	10.336000
251	1	0.000000	37.343015	12.920000
252	1	1.617000	34.542289	12.920000
253	1	0.000000	33.608714	15.504000
254	1	1.617000	36.409440	15.504000
255	1	0.000000	37.343015	18.088000
256	1	1.617000	34.542289	18.088000
257	1	0.000000	33.608714	20.672000
258	1	1.617000	36.409440	20.672000
259	1	0.000000	37.343015	23.256000
260	1	1.617000	34.542289	23.256000
261	1	0.000000	33.608714	25.840000
262	1	1.617000	36.409440	25.840000
263	1	0.000000	37.343015	28.424000
264	1	1.617000	34.542289	28.424000
265	1	0.000000	33.608714	31.008000
266	1	1.617000	36.409440	31.008000
267	1	0.000000	37.343015	33.592000
268	1	1.617000	34.542289	33.592000
269	1	0.000000	33.608714	36.176000
270	1	1.617000	36.409440	36.176000
271	1	0.000000	37.343015	38.760000
272	1	1.617000	34.542289	38.760000
273	1	0.000000	33.608714	41.344000
274	1	1.617000	36.409440	41.344000
275	1	0.000000	37.343015	43.928000
276	1	1.617000	34.542289	43.928000
277	1	0.000000	33.608714	46.512000
278	1	1.617000	36.409440	46.512000
279	1	0.000000	37.343015	49.096000
280	1	1.617000	34.542289	49.096000
281	1	0.000000	39.210166	0.000000
282	1	1.617000	42.010892	0.000000
283	1	0.000000	42.944468	2.584000
284	1	1.617000	40.143742	2.584000
285	1	0.000000	39.210166	5.168000
286	1	1.617000	42.010892	5.168000
287	1	0.000000	42.944468	7.752000
288	1	1.617000	40.143742	7.752000
289	1	0.000000	39.210166	10.336000
290	1	1.617000	42.010892	10.336000
291	1	0.000000	42.944468	12.920000
292	1	1.617000	40.143742	12.920000
293	1	0.000000	39.210166	15.504000
294	1	1.617000	42.010892	15.504000
295	1	0.000000	42.944468	18.088000
296	1	1.617000	40.143742	18.088000
297	1	0.000000	39.210166	20.672000
298	1	1.617000	42.010892	20.672000
299	1	0.000000	42.944468	23.256000
300	1	1.617000	40.143742	23.256000
301	1	0.000000	39.210166	25.840000
302	1	1.617000	42.010892	25.840000
303	1	0.000000	42.944468	28.424000
304	1	1.617000	40.143742	28.424000
305	1	0.000000	39.210166	31.008000
306	1	1.617000	42.010892	31.008000
307	1	0.000000	42.944468	33.592000
308	1	1.617000	40.143742	33.592000
309	1	0.000000	39.210166	36.176000
310	1	1.617000	42.010892	36.176000
311	1	0.000000	42.944468	38.760000
312	1	1.617000	40.143742	38.760000
313	1	0.000000	39.210166	41.344000
314	1	1.617000	42.010892	41.344000
315	1	0.000000	42.944468	43.928000
316	1	1.617000	40.143742	43.928000
317	1	0.000000	39.210166	46.512000
318	1	1.617000	42.010892	46.512000
319	1	0.000000	42.944468	49.096000
320	1	1.617000	40.143742	49.096000
321	1	0.000000	44.811618	0.000000
322	1	1.617000	47.612345	0.000000
323	1	0.000000	48.545920	2.584000
324	1	1.617000	45.745194	2.584000
325	1	0.000000	44.811618	5.168000
326	1	1.617000	47.612345	5.168000
327	1	0.000000	48.545920	7.752000
328	1	1.617000	45.745194	7.752000
329	1	0.000000	44.811618	10.336000
330	1	1.617000	47.612345	10.336000
331	1	0.000000	48.545920	12.920000
332	1	1.617000	45.745194	12.920000
333	1	0.000000	44.811618	15.504000
334	1	1.617000	47.612345	15.504000
335	1	0.000000	48.545920	18.088000
336	1	1.617000	45.745194	18.088000
337	1	0.000000	44.811618	20.672000
338	1	1.617000	47.612345	20.672000
339	1	0.000000	48.545920	23.256000
340	1	1.617000	45.745194	23.256000
341	1	0.000000	44.811618	25.840000
342	1	1.617000	47.612345	25.840000
343	1	0.000000	48.545920	28.424000
344	1	1.617000	45.745194	28.424000
345	1	0.000000	44.811618	31.008000
346	1	1.617000	47.612345	31.008000
347	1	0.000000	48.545920	33.592000
348	1	1.617000	45.745194	33.592000
349	1	0.000000	44.811618	36.176000
350	1	1.617000	47.612345	36.176000
351	1	0.000000	48.545920	38.760000
352	1	1.617000	45.745194	38.760000
353	1	0.000000	44.811618	41.344000
354	1	1.617000	47.612345	41.344000
355	1	0.000000	48.545920	43.928000
356	1	1.617000	45.745194	43.928000
357	1	0.000000	44.811618	46.512000
358	1	1.617000	47.612345	46.512000
359	1	0.000000	48.545920	49.096000
360	1	1.617000	45.745194	49.096000
361	1	0.000000	50.413071	0.000000
362	1	1.617000	53.213797	0.000000
363	1	0.000000	54.147372	2.584000
364	1	1.617000	51.346646	2.584000
365	1	0.000000	50.413071	5.168000
366	1	1.617000	53.213797	5.168000
367	1	0.000000	54.147372	7.752000
368	1	1.617000	51.346646	7.752000
369	1	0.000000	50.413071	10.336000
370	1	1.617000	53.213797	10.336000
371	1	0.000000	54.147372	12.920000
372	1	1.617000	51.346646	12.920000
373	1	0.000000	50.413071	15.504000
374	1	1.617000	53.213797	15.504000
375	1	0.000000	54.147372	18.088000
376	1	1.617000	51.346646	18.088000
377	1	0.000000	50.413071	20.672000
378	1	1.617000	53.213797	20.672000
379	1	0.000000	54.147372	23.256000
380	1	1.617000	51.346646	23.256000
381	1	0.000000	50.413071	25.840000
382	1	1.617000	53.213797	25.840000
383	1	0.000000	54.147372	28.424000
384	1	1.617000	51.346646	28.424000
385	1	0.000000	50.413071	31.008000
386	1	1.617000	53.213797	31.008000
387	1	0.000000	54.147372	33.592000
388	1	1.617000	51.346646	33.592000
389	1	0.000000	50.413071	36.176000
390	1	1.617000	53.213797	36.176000
391	1	0.000000	54.147372	38.760000
392	1	1.617000	51.346646	38.760000
393	1	0.000000	50.413071	41.344000
394	1	1.617000	53.213797	41.344000
395	1	0.000000	54.147372	43.928000
396	1	1.617000	51.346646	43.928000
397	1	0.000000	50.413071	46.512000
398	1	1.617000	53.213797	46.512000
399	1	0.000000	54.147372	49.096000
400	1	1.617000	51.346646	49.096000
401	1	3.234000	0.000000	0.000000
402	1	4.851000	2.800726	0.000000
403	1	3.234000	3.734302	2.584000
404	1	4.851000	0.933575	2.584000
405	1	3.234000	0.000000	5.168000
406	1	4.851000	2.800726	5.168000
407	1	3.234000	3.734302	7.752000
408	1	4.851000	0.933575	7.752000
409	1	3.234000	0.000000	10.336000
410	1	4.851000	2.800726	10.336000
411	1	3.234000	3.734302	12.920000
412	1	4.851000	0.933575	12.920000
413	1	3.234000	0.000000	15.504000
414	1	4.851000	2.800726	15.504000
415	1	3.234000	3.734302	18.088000
416	1	4.851000	0.933575	18.088000
417	1	3.234000	0.000000	20.672000
418	1	4.851000	2.800726	20.672000
419	1	3.234000	3.734302	23.256000
420	1	4.851000	0.933575	23.256000
421	1	3.234000	0.000000	25.840000
422	1	4.851000	2.800726	25.840000
423	1	3.234000	3.734302	28.424000
424	1	4.851000	0.933575	28.424000
425	1	3.234000	0.000000	31.008000
426	1	4.851000	2.800726	31.008000
427	1	3.234000	3.734302	33.592000
428	1	4.851000	0.933575	33.592000
429	1	3.234000	0.000000	36.176000
430	1	4.851000	2.800726	36.176000
431	1	3.234000	3.734302	38.760000
432	1	4.851000	0.933575	38.760000
433	1	3.234000	0.000000	41.344000
434	1	4.851000	2.800726	41.344000
435	1	3.234000	3.734302	43.928000
436	1	4.851000	0.933575	43.928000
437	1	3.234000	0.000000	46.512000
438	1	4.851000	2.800726	46.512000
439	1	3.234000	3.734302	49.096000
440	1	4.851000	0.933575	49.096000
441	1	3.234000	5.601452	0.000000
442	1	4.851000	8.402178	0.000000
443	1	3.234000	9.335754	2.584000
444	1	4.851000	6.535028	2.584000
445	1	3.234000	5.601452	5.168000
446	1	4.851000	8.402178	5.168000
447	1	3.234000	9.335754	7.752000
448	1	4.851000	6.535028	7.752000
449	1	3.234000	5.601452	10.336000
450	1	4.851000	8.402178	10.336000
451	1	3.234000	9.335754	12.920000
452	1	4.851000	6.535028	12.920000
453	1	3.234000	5.601452	15.504000
454	1	4.851000	8.402178	15.504000
455	1	3.234000	9.335754	18.088000
456	1	4.851000	6.535028	18.088000
457	1	3.234000	5.601452	20.672000
458	1	4.851000	8.402178	20.672000
459	1	3.234000	9.335754	23.256000
460	1	4.851000	6.535028	23.256000
461	1	3.234000	5.601452	25.840000
462	1	4.851000	8.402178	25.840000
463	1	3.234000	9.335754	28.424000
464	1	4.851000	6.535028	28.424000
465	1	3.234000	5.601452	31.008000
466	1	4.851000	8.402178	31.008000
467	1	3.234000	9.335754	33.592000
468	1	4.851000	6.535028	33.592000
469	1	3.234000	5.601452	36.176000
470	1	4.851000	8.402178	36.176000
471	1	3.234000	9.335754	38.760000
472	1	4.851000	6.535028	38.760000
473	1	3.234000	5.601452	41.344000
474	1	4.851000	8.402178	41.344000
475	1	3.234000	9.335754	43.928000
476	1	4.851000	6.535028	43.928000
477	1	3.234000	5.601452	46.512000
478	1	4.851000	8.402178	46.512000
479	1	3.234000	9.335754	49.096000
480	1	4.851000	6.535028	49.096000
481	1	3.234000	11.202905	0.000000
482	1	4.851000	14.003631	0.000000
483	1	3.234000	14.937206	2.584000
484	1	4.851000	12.136480	2.584000
485	1	3.234000	11.202905	5.168000
486	1	4.851000	14.003631	5.168000
487	1	3.234000	14.937206	7.752000
488	1	4.851000	12.136480	7.752000
489	1	3.234000	11.202905	10.336000
490	1	4.851000	14.003631	10.336000
491	1	3.234000	14.937206	12.920000
492	1	4.851000	12.136480	12.920000
493	1	3.234000	11.202905	15.504000
494	1	4.851000	14.003631	15.504000
495	1	3.234000	14.937206	18.088000
496	1	4.851000	12.136480	18.088000
497	1	3.234000	11.202905	20.672000
498	1	4.851000	14.003631	20.672000
499	1	3.234000	14.937206	23.256000
500	1	4.851000	12.136480	23.256000
501	1	3.234000	11.202905	25.840000
502	1	4.851000	14.003631	25.840000
503	1	3.234000	14.937206	28.424000
504	1	4.851000	12.136480	28.424000
505	1	3.234000	11.202905	31.008000
506	1	4.851000	14.003631	31.008000
507	1	3.234000	14.937206	33.592000
508	1	4.851000	12.136480	33.592000
509	1	3.234000	11.202905	36.176000
510	1	4.851000	14.003631	36.176000
511	1	3.234000	14.937206	38.760000
512	1	4.851000	12.136480	38.760000
513	1	3.234000	11.202905	41.344000
514	1	4.851000	14.003631	41.344000
515	1	3.234000	14.937206	43.928000
516	1	4.851000	12.136480	43.928000
517	1	3.234000	11.202905	46.512000
518	1	4.851000	14.003631	46.512000
519	1	3.234000	14.937206	49.096000
520	1	4.851000	12.136480	49.096000
521	1	3.234000	16.804357	0.000000
522	1	4.851000	19.605083	0.000000
523	1	3.234000	20.538658	2.584000
524	1	4.851000	17.737932	2.584000
525	1	3.234000	16.804357	5.168000
526	1	4.851000	19.605083	5.168000
527	1	3.234000	20.538658	7.752000
528	1	4.851000	17.737932	7.752000
529	1	3.234000	16.804357	10.336000
530	1	4.851000	19.605083	10.336000
531	1	3.234000	20.538658	12.920000
532	1	4.851000	17.737932	12.920000
533	1	3.234000	16.804357	15.504000
534	1	4.851000	19.605083	15.504000
535	1	3.234000	20.538658	18.088000
536	1	4.851000	17.737932	18.088000
537	1	3.234000	16.804357	20.672000
538	1	4.851000	19.605083	20.672000
539	1	3.234000	20.538658	23.256000
540	1	4.851000	17.737932	23.256000
541	1	3.234000	16.804357	25.840000
542	1	4.851000	19.605083	25.840000
543	1	3.234000	20.538658	28.424000
544	1	4.851000	17.737932	28.424000
545	1	3.234000	16.804357	31.008000
546	1	4.851000	19.605083	31.008000
547	1	3.234000	20.538658	33.592000
548	1	4.851000	17.737932	33.592000
549	1	3.234000	16.804357	36.176000
550	1	4.851000	19.605083	36.176000
551	1	3.234000	20.538658	38.760000
552	1	4.851000	17.737932	38.760000
553	1	3.234000	16.804357	41.344000
554	1	4.851000	19.605083	41.344000
555	1	3.234000	20.538658	43.928000
556	1	4.851000	17.737932	43.928000
557	1	3.234000	16.804357	46.512000
558	1	4.851000	19.605083	46.512000
559	1	3.234000	20.538658	49.096000
560	1	4.851000	17.737932	49.096000
561	1	3.234000	22.405809	0.000000
562	1	4.851000	25.206535	0.000000
563	1	3.234000	26.140111	2.584000
564	1	4.851000	23.339385	2.584000
565	1	3.234000	22.405809	5.168000
566	1	4.851000	25.206535	5.168000
567	1	3.234000	26.140111	7.752000
568	1	4.851000	23.339385	7.752000
569	1	3.234000	22.405809	10.336000
570	1	4.851000	25.206535	10.336000
571	1	3.234000	26.140111	12.920000
572	1	4.851000	23.339385	12.920000
573	1	3.234000	22.405809	15.504000
574	1	4.851000	25.206535	15.504000
575	1	3.234000	26.140111	18.088000
576	1	4.851000	23.339385	18.088000
577	1	3.234000	22.405809	20.672000
578	1	4.851000	25.206535	20.672000
579	1	3.234000	26.140111	23.256000
580	1	4.851000	23.339385	23.256000
581	1	3.234000	22.405809	25.840000
582	1	4.851000	25.206535	25.840000
583	1	3.234000	26.140111	28.424000
584	1	4.851000	23.339385	28.424000
585	1	3.234000	22.405809	31.008000
586	1	4.851000	25.206535	31.008000
587	1	3.234000	26.140111	33.592000
588	1	4.851000	23.339385	33.592000
589	1	3.234000	22.405809	36.176000
590	1	4.851000	25.206535	36.176000
591	1	3.234000	26.140111	38.760000
592	1	4.851000	23.339385	38.760000
593	1	3.234000	22.405809	41.344000
594	1	4.851000	25.206535	41.344000
595	1	3.234000	26.140111	43.928000
596	1	4.851000	23.339385	43.928000
597	1	3.234000	22.405809	46.512000
598	1	4.851000	25.206535	46.512000
599	1	3.234000	26.140111	49.096000
600	1	4.851000	23.339385	49.096000
601	1	3.234000	28.007262	0.000000
602	1	4.851000	30.807988	0.000000
603	1	3.234000	31.741563	2.584000
604	1	4.851000	28.940837	2.584000
605	1	3.234000	28.007262	5.168000
606	1	4.851000	30.807988	5.168000
607	1	3.234000	31.741563	7.752000
608	1	4.851000	28.940837	7.752000
609	1	3.234000	28.007262	10.336000
610	1	4.851000	30.807988	10.336000
611	1	3.234000	31.741563	12.920000
612	1	4.851000	28.940837	12.920000
613	1	3.234000	28.007262	15.504000
614	1	4.851000	30.807988	15.504000
615	1	3.234000	31.741563	18.088000
616	1	4.851000	28.940837	18.088000
617	1	3.234000	28.007262	20.672000
618	1	4.851000	30.807988	20.672000
619	1	3.234000	31.741563	23.256000
620	1	4.851000	28.940837	23.256000
621	1	3.234000	28.007262	25.840000
622	1	4.851000	30.807988	25.840000
623	1	3.234000	31.741563	28.424000
624	1	4.851000	28.940837	28.424000
625	1	3.234000	28.007262	31.008000
626	1	4.851000	30.807988	31.008000
627	1	3.234000	31.741563	33.592000
628	1	4.851000	28.940837	33.592000
629	1	3.234000	28.007262	36.176000
630	1	4.851000	30.807988	36.176000
631	1	3.234000	31.741563	38.760000
632	1	4.851000	28.940837	38.760000
633	1	3.234000	28.007262	41.344000
634	1	4.851000	30.807988	41.344000
635	1	3.234000	31.741563	43.928000
636	1	4.851000	28.940837	43.928000
637	1	3.234000	28.007262	46.512000
638	1	4.851000	30.807988	46.512000
639	1	3.234000	31.741563	49.096000
640	1	4.851000	28.940837	49.096000
641	1	3.234000	33.608714	0.000000
642	1	4.851000	36.409440	0.000000
643	1	3.234000	37.343015	2.584000
644	1	4.851000	34.542289	2.584000
645	1	3.234000	33.608714	5.168000
646	1	4.851000	36.409440	5.168000
647	1	3.234000	37.343015	7.752000
648	1	4.851000	34.542289	7.752000
649	1	3.234000	33.608714	10.336000
650	1	4.851000	36.409440	10.336000
651	1	3.234000	37.343015	12.920000
652	1	4.851000	34.542289	12.920000
653	1	3.234000	33.608714	15.504000
654	1	4.851000	36.409440	15.504000
655	1	3.234000	37.343015	18.088000
656	1	4.851000	34.542289	18.088000
657	1	3.234000	33.608714	20.672000
658	1	4.851000	36.409440	20.672000
659	1	3.234000	37.343015	23.256000
660	1	4.851000	34.542289	23.256000
661	1	3.234000	33.608714	25.840000
662	1	4.851000	36.409440	25.840000
663	1	3.234000	37.343015	28.424000
664	1	4.851000	34.542289	28.424000
665	1	3.234000	33.608714	31.008000
666	1	4.851000	36.409440	31.008000
667	1	3.234000	37.343015	33.592000
668	1	4.851000	34.542289	33.592000
669	1	3.234000	33.608714	36.176000
670	1	4.851000	36.409440	36.176000
671	1	3.234000	37.343015	38.760000
672	1	4.851000	34.542289	38.760000
673	1	3.234000	33.608714	41.344000
674	1	4.851000	36.409440	41.344000
675	1	3.234000	37.343015	43.928000
676	1	4.851000	34.542289	43.928000
677	1	3.234000	33.608714	46.512000
678	1	4.851000	36.409440	46.512000
679	1	3.234000	37.343015	49.096000
680	1	4.851000	34.542289	49.096000
681	1	3.234000	39.210166	0.000000
682	1	4.851000	42.010892	0.000000
683	1	3.234000	42.944468	2.584000
684	1	4.851000	40.143742	2.584000
685	1	3.234000	39.210166	5.168000
686	1	4.851000	42.010892	5.168000
687	1	3.234000	42.944468	7.752000
688	1	4.851000	40.143742	7.752000
689	1	3.234000	39.210166	10.336000
690	1	4.851000	42.010892	10.336000
691	1	3.234000	42.944468	12.920000
692	1	4.851000	40.143742	12.920000
693	1	3.234000	39.210166	15.504000
694	1	4.851000	42.010892	15.504000
695	1	3.234000	42.944468	18.088000
696	1	4.851000	40.143742	18.088000
697	1	3.234000	39.210166	20.672000
698	1	4.851000	42.010892	20.672000
699	1	3.234000	42.944468	23.256000
700	1	4.851000	40.143742	23.256000
701	1	3.234000	39.210166	25.840000
702	1	4.851000	42.010892	25.840000
703	1	3.234000	42.944468	28.424000
704	1	4.851000	40.143742	28.424000
705	1	3.234000	39.210166	31.008000
706	1	4.851000	42.010892	31.008000
707	1	3.234000	42.944468	33.592000
708	1	4.851000	40.143742	33.592000
709	1	3.234000	39.210166	36.176000
710	1	4.851000	42.010892	36.176000
711	1	3.234000	42.944468	38.760000
712	1	4.851000	40.143742	38.760000
713	1	3.234000	39.210166	41.344000
714	1	4.851000	42.010892	41.344000
715	1	3.234000	42.944468	43.928000
716	1	4.851000	40.143742	43.928000
717	1	3.234000	39.210166	46.512000
718	1	4.851000	42.010892	46.512000
719	1	3.234000	42.944468	49.096000
720	1	4.851000	40.143742	49.096000
721	1	3.234000	44.811618	0.000000
722	1	4.851000	47.612345	0.000000
723	1	3.234000	48.545920	2.584000
724	1	4.851000	45.745194	2.584000
725	1	3.234000	44.811618	5.168000
726	1	4.851000	47.612345	5.168000
727	1	3.234000	48.545920	7.752000
728	1	4.851000	45.745194	7.752000
729	1	3.234000	44.811618	10.336000
730	1	4.851000	47.612345	10.336000
731	1	3.234000	48.545920	12.920000
732	1	4.851000	45.745194	12.920000
733	1	3.234000	44.811618	15.504000
734	1	4.851000	47.612345	15.504000
735	1	3.234000	48.545920	18.088000
736	1	4.851000	45.745194	18.088000
737	1	3.234000	44.811618	20.672000
738	1	4.851000	47.612345	20.672000
739	1	3.234000	48.545920	23.256000
740	1	4.851000	45.745194	23.256000
741	1	3.234000	44.811618	25.840000
742	1	4.851000	47.612345	25.840000
743	1	3.234000	48.545920	28.424000
744	1	4.851000	45.745194	28.424000
745	1	3.234000	44.811618	31.008000
746	1	4.851000	47.612345	31.008000
747	1	3.234000	48.545920	33.592000
748	1	4.851000	45.745194	33.592000
749	1	3.234000	44.811618	36.176000
750	1	4.851000	47.612345	36.176000
751	1	3.234000	48.545920	38.760000
752	1	4.851000	45.745194	38.760000
753	1	3.234000	44.811618	41.344000
754	1	4.851000	47.612345	41.344000
755	1	3.234000	48.545920	43.928000
756	1	4.851000	45.745194	43.928000
757	1	3.234000	44.811618	46.512000
758	1	4.851000	47.612345	46.512000
759	1	3.234000	48.545920	49.096000
760	1	4.851000	45.745194	49.096000
761	1	3.234000	50.413071	0.000000
762	1	4.851000	53.213797	0.000000
763	1	3.234000	54.147372	2.584000
764	1	4.851000	51.346646	2.584000
765	1	3.234000	50.413071	5.168000
766	1	4.851000	53.213797	5.168000
767	1	3.234000	54.147372	7.752000
768	1	4.851000	51.346646	7.752000
769	1	3.234000	50.413071	10.336000
770	1	4.851000	53.213797	10.336000
771	1	3.234000	54.147372	12.920000
772	1	4.851000	51.346646	12.920000
773	1	3.234000	50.413071	15.504000
774	1	4.851000	53.213797	15.504000
775	1	3.234000	54.147372	18.088000
776	1	4.851000	51.346646	18.088000
777	1	3.234000	50.413071	20.672000
778	1	4.851000	53.213797	20.672000
779	1	3.234000	54.147372	23.256000
780	1	4.851000	51.346646	23.256000
781	1	3.234000	50.413071	25.840000
782	1	4.851000	53.213797	25.840000
783	1	3.234000	54.147372	28.424000
784	1	4.851000	51.346646	28.424000
785	1	3.234000	50.413071	31.008000
786	1	4.851000	53.213797	31.008000
787	1	3.234000	54.147372	33.592000
788	1	4.851000	51.346646	33.592000
789	1	3.234000	50.413071	36.176000
790	1	4.851000	53.213797	36.176000
791	1	3.234000	54.147372	38.760000
792	1	4.851000	51.346646	38.760000
793	1	3.234000	50.413071	41.344000
794	1	4.851000	53.213797	41.344000
795	1	3.234000	54.147372	43.928000
796	1	4.851000	51.346646	43.928000
797	1	3.234000	50.413071	46.512000
798	1	4.851000	53.213797	46.512000
799	1	3.234000	54.147372	49.096000
800	1	4.851000	51.346646	49.096000
801	1	6.468000	0.000000	0.000000
802	1	8.085000	2.800726	0.000000
803	1	6.468000	3.734302	2.584000
804	1	8.085000	0.933575	2.584000
805	1	6.468000	0.000000	5.168000
806	1	8.085000	2.800726	5.168000
807	1	6.468000	3.734302	7.752000
808	1	8.085000	0.933575	7.752000
809	1	6.468000	0.000000	10.336000
810	1	8.085000	2.800726	10.336000
811	1	6.468000	3.734302	12.920000
812	1	8.085000	0.933575	12.920000
813	1	6.468000	0.000000	15.504000
814	1	8.085000	2.800726	15.504000
815	1	6.468000	3.734302	18.088000
816	1	8.085000	0.933575	18.088000
817	1	6.468000	0.000000	20.672000
818	1	8.085000	2.800726	20.672000
819	1	6.468000	3.734302	23.256000
820	1	8.085000	0.933575	23.256000
821	1	6.468000	0.000000	25.840000
822	1	8.085000	2.800726	25.840000
823	1	6.468000	3.734302	28.424000
824	1	8.085000	0.933575	28.424000
825	1	6.468000	0.000000	31.008000
826	1	8.085000	2.800726	31.008000
827	1	6.468000	3.734302	33.592000
828	1	8.085000	0.933575	33.592000
829	1	6.468000	0.000000	36.176000
830	1	8.085000	2.800726	36.176000
831	1	6.468000	3.734302	38.760000
832	1	8.085000	0.933575	38.760000
833	1	6.468000	0.000000	41.344000
834	1	8.085000	2.800726	41.344000
835	1	6.468000	3.734302	43.928000
836	1	8.085000	0.933575	43.928000
837	1	6.468000	0.000000	46.512000
838	1	8.085000	2.800726	46.512000
839	1	6.468000	3.734302	49.096000
840	1	8.085000	0.933575	49.096000
841	1	6.468000	5.601452	0.000000
842	1	8.085000	8.402178	0.000000
843	1	6.468000	9.335754	2.584000
844	1	8.085000	6.535028	2.584000
845	1	6.468000	5.601452	5.168000
846	1	8.085000	8.402178	5.168000
847	1	6.468000	9.335754	7.752000
848	1	8.085000	6.535028	7.752000
849	1	6.468000	5.601452	10.336000
850	1	8.085000	8.402178	10.336000
851	1	6.468000	9.335754	12.920000
852	1	8.085000	6.535028	12.920000
853	1	6.468000	5.601452	15.504000
854	1	8.085000	8.402178	15.504000
855	1	6.468000	9.335754	18.088000
856	1	8.085000	6.535028	18.088000
857	1	6.468000	5.601452	20.672000
858	1	8.085000	8.402178	20.672000
859	1	6.468000	9.335754	23.256000
860	1	8.085000	6.535028	23.256000
861	1	6.468000	5.601452	25.840000
862	1	8.085000	8.402178	25.840000
863	1	6.468000	9.335754	28.424000
864	1	8.085000	6.535028	28.424000
865	1	6.468000	5.601452	31.008000
866	1	8.085000	8.402178	31.008000
867	1	6.468000	9.335754	33.592000