Position data Generated by SPaMD
2000	atoms
1	atom types
0.000000		32.320000	xlo xhi
0.000000		27.989940	ylo yhi
0.000000		51.820000	zlo zhi
-16.160000		0.000000	0.000000	xy xz yz

Atoms

1	1	0.000000	1.865996	1.295500
2	1	1.616000	0.932998	3.886500
3	1	0.000000	1.865996	6.477500
4	1	1.616000	0.932998	9.068500
5	1	0.000000	1.865996	11.659500
6	1	1.616000	0.932998	14.250500
7	1	0.000000	1.865996	16.841500
8	1	1.616000	0.932998	19.432500
9	1	0.000000	1.865996	22.023500
10	1	1.616000	0.932998	24.614500
11	1	0.000000	1.865996	27.205500
12	1	1.616000	0.932998	29.796500
13	1	0.000000	1.865996	32.387500
14	1	1.616000	0.932998	34.978500
15	1	0.000000	1.865996	37.569500
16	1	1.616000	0.932998	40.160500
17	1	0.000000	1.865996	42.751500
18	1	1.616000	0.932998	45.342500
19	1	0.000000	1.865996	47.933500
20	1	1.616000	0.932998	50.524500
21	1	-1.616000	4.664990	1.295500
22	1	0.000000	3.731992	3.886500
23	1	-1.616000	4.664990	6.477500
24	1	0.000000	3.731992	9.068500
25	1	-1.616000	4.664990	11.659500
26	1	0.000000	3.731992	14.250500
27	1	-1.616000	4.664990	16.841500
28	1	0.000000	3.731992	19.432500
29	1	-1.616000	4.664990	22.023500
30	1	0.000000	3.731992	24.614500
31	1	-1.616000	4.664990	27.205500
32	1	0.000000	3.731992	29.796500
33	1	-1.616000	4.664990	32.387500
34	1	0.000000	3.731992	34.978500
35	1	-1.616000	4.664990	37.569500
36	1	0.000000	3.731992	40.160500
37	1	-1.616000	4.664990	42.751500
38	1	0.000000	3.731992	45.342500
39	1	-1.616000	4.664990	47.933500
40	1	0.000000	3.731992	50.524500
41	1	-3.232000	7.463984	1.295500
42	1	-1.616000	6.530986	3.886500
43	1	-3.232000	7.463984	6.477500
44	1	-1.616000	6.530986	9.068500
45	1	-3.232000	7.463984	11.659500
46	1	-1.616000	6.530986	14.250500
47	1	-3.232000	7.463984	16.841500
48	1	-1.616000	6.530986	19.432500
49	1	-3.232000	7.463984	22.023500
50	1	-1.616000	6.530986	24.614500
51	1	-3.232000	7.463984	27.205500
52	1	-1.616000	6.530986	29.796500
53	1	-3.232000	7.463984	32.387500
54	1	-1.616000	6.530986	34.978500
55	1	-3.232000	7.463984	37.569500
56	1	-1.616000	6.530986	40.160500
57	1	-3.232000	7.463984	42.751500
58	1	-1.616000	6.530986	45.342500
59	1	-3.232000	7.463984	47.933500
60	1	-1.616000	6.530986	50.524500
61	1	-4.848000	10.262978	1.295500
62	1	-3.232000	9.329980	3.886500
63	1	-4.848000	10.262978	6.477500
64	1	-3.232000	9.329980	9.068500
65	1	-4.848000	10.262978	11.659500
66	1	-3.232000	9.329980	14.250500
67	1	-4.848000	10.262978	16.841500
68	1	-3.232000	9.329980	19.432500
69	1	-4.848000	10.262978	22.023500
70	1	-3.232000	9.329980	24.614500
71	1	-4.848000	10.262978	27.205500
72	1	-3.232000	9.329980	29.796500
73	1	-4.848000	10.262978	32.387500
74	1	-3.232000	9.329980	34.978500
75	1	-4.848000	10.262978	37.569500
76	1	-3.232000	9.329980	40.160500
77	1	-4.848000	10.262978	42.751500
78	1	-3.232000	9.329980	45.342500
79	1	-4.848000	10.262978	47.933500
80	1	-3.232000	9.329980	50.524500
81	1	-6.464000	13.061972	1.295500
82	1	-4.848000	12.128974	3.886500
83	1	-6.464000	13.061972	6.477500
84	1	-4.848000	12.128974	9.068500
85	1	-6.464000	13.061972	11.659500
86	1	-4.848000	12.128974	14.250500
87	1	-6.464000	13.061972	16.841500
88	1	-4.848000	12.128974	19.432500
89	1	-6.464000	13.061972	22.023500
90	1	-4.848000	12.128974	24.614500
91	1	-6.464000	13.061972	27.205500
92	1	-4.848000	12.128974	29.796500
93	1	-6.464000	13.061972	32.387500
94	1	-4.848000	12.128974	34.978500
95	1	-6.464000	13.061972	37.569500
96	1	-4.848000	12.128974	40.160500
97	1	-6.464000	13.061972	42.751500
98	1	-4.848000	12.128974	45.342500
99	1	-6.464000	13.061972	47.933500
100	1	-4.848000	12.128974	50.524500
101	1	-8.080000	15.860966	1.295500
102	1	-6.464000	14.927968	3.886500
103	1	-8.080000	15.860966	6.477500
104	1	-6.464000	14.927968	9.068500
105	1	-8.080000	15.860966	11.659500
106	1	-6.464000	14.927968	14.250500
107	1	-8.080000	15.860966	16.841500
108	1	-6.464000	14.927968	19.432500
109	1	-8.080000	15.860966	22.023500
110	1	-6.464000	14.927968	24.614500
111	1	-8.080000	15.860966	27.205500
112	1	-6.464000	14.927968	29.796500
113	1	-8.080000	15.860966	32.387500
114	1	-6.464000	14.927968	34.978500
115	1	-8.080000	15.860966	37.569500
116	1	-6.464000	14.927968	40.160500
117	1	-8.080000	15.860966	42.751500
118	1	-6.464000	14.927968	45.342500
119	1	-8.080000	15.860966	47.933500
120	1	-6.464000	14.927968	50.524500
121	1	-9.696000	18.659960	1.295500
122	1	-8.080000	17.726962	3.886500
123	1	-9.696000	18.659960	6.477500
124	1	-8.080000	17.726962	9.068500
125	1	-9.696000	18.659960	11.659500
126	1	-8.080000	17.726962	14.250500
127	1	-9.696000	18.659960	16.841500
128	1	-8.080000	17.726962	19.432500
129	1	-9.696000	18.659960	22.023500
130	1	-8.080000	17.726962	24.614500
131	1	-9.696000	18.659960	27.205500
132	1	-8.080000	17.726962	29.796500
133	1	-9.696000	18.659960	32.387500
134	1	-8.080000	17.726962	34.978500
135	1	-9.696000	18.659960	37.569500
136	1	-8.080000	17.726962	40.160500
137	1	-9.696000	18.659960	42.751500
138	1	-8.080000	17.726962	45.342500
139	1	-9.696000	18.659960	47.933500
140	1	-8.080000	17.726962	50.524500
141	1	-11.312000	21.458954	1.295500
142	1	-9.696000	20.525956	3.886500
143	1	-11.312000	21.458954	6.477500
144	1	-9.696000	20.525956	9.068500
145	1	-11.312000	21.458954	11.659500
146	1	-9.696000	20.525956	14.250500
147	1	-11.312000	21.458954	16.841500
148	1	-9.696000	20.525956	19.432500
149	1	-11.312000	21.458954	22.023500
150	1	-9.696000	20.525956	24.614500
151	1	-11.312000	21.458954	27.205500
152	1	-9.696000	20.525956	29.796500
153	1	-11.312000	21.458954	32.387500
154	1	-9.696000	20.525956	34.978500
155	1	-11.312000	21.458954	37.569500
156	1	-9.696000	20.525956	40.160500
157	1	-11.312000	21.458954	42.751500
158	1	-9.696000	20.525956	45.342500
159	1	-11.312000	21.458954	47.933500
160	1	-9.696000	20.525956	50.524500
161	1	-12.928000	24.257948	1.295500
162	1	-11.312000	23.324950	3.886500
163	1	-12.928000	24.257948	6.477500
164	1	-11.312000	23.324950	9.068500
165	1	-12.928000	24.257948	11.659500
166	1	-11.312000	23.324950	14.250500
167	1	-12.928000	24.257948	16.841500
168	1	-11.312000	23.324950	19.432500
169	1	-12.928000	24.257948	22.023500
170	1	-11.312000	23.324950	24.614500
171	1	-12.928000	24.257948	27.205500
172	1	-11.312000	23.324950	29.796500
173	1	-12.928000	24.257948	32.387500
174	1	-11.312000	23.324950	34.978500
175	1	-12.928000	24.257948	37.569500
176	1	-11.312000	23.324950	40.160500
177	1	-12.928000	24.257948	42.751500
178	1	-11.312000	23.324950	45.342500
179	1	-12.928000	24.257948	47.933500
180	1	-11.312000	23.324950	50.524500
181	1	-14.544000	27.056942	1.295500
182	1	-12.928000	26.123944	3.886500
183	1	-14.544000	27.056942	6.477500
184	1	-12.928000	26.123944	9.068500
185	1	-14.544000	27.056942	11.659500
186	1	-12.928000	26.123944	14.250500
187	1	-14.544000	27.056942	16.841500
188	1	-12.928000	26.123944	19.432500
189	1	-14.544000	27.056942	22.023500
190	1	-12.928000	26.123944	24.614500
191	1	-14.544000	27.056942	27.205500
192	1	-12.928000	26.123944	29.796500
193	1	-14.544000	27.056942	32.387500
194	1	-12.928000	26.123944	34.978500
195	1	-14.544000	27.056942	37.569500
196	1	-12.928000	26.123944	40.160500
197	1	-14.544000	27.056942	42.751500
198	1	-12.928000	26.123944	45.342500
199	1	-14.544000	27.056942	47.933500
200	1	-12.928000	26.123944	50.524500
201	1	3.232000	1.865996	1.295500
202	1	4.848000	0.932998	3.886500
203	1	3.232000	1.865996	6.477500
204	1	4.848000	0.932998	9.068500
205	1	3.232000	1.865996	11.659500
206	1	4.848000	0.932998	14.250500
207	1	3.232000	1.865996	16.841500
208	1	4.848000	0.932998	19.432500
209	1	3.232000	1.865996	22.023500
210	1	4.848000	0.932998	24.614500
211	1	3.232000	1.865996	27.205500
212	1	4.848000	0.932998	29.796500
213	1	3.232000	1.865996	32.387500
214	1	4.848000	0.932998	34.978500
215	1	3.232000	1.865996	37.569500
216	1	4.848000	0.932998	40.160500
217	1	3.232000	1.865996	42.751500
218	1	4.848000	0.932998	45.342500
219	1	3.232000	1.865996	47.933500
220	1	4.848000	0.932998	50.524500
221	1	1.616000	4.664990	1.295500
222	1	3.232000	3.731992	3.886500
223	1	1.616000	4.664990	6.477500
224	1	3.232000	3.731992	9.068500
225	1	1.616000	4.664990	11.659500
226	1	3.232000	3.731992	14.250500
227	1	1.616000	4.664990	16.841500
228	1	3.232000	3.731992	19.432500
229	1	1.616000	4.664990	22.023500
230	1	3.232000	3.731992	24.614500
231	1	1.616000	4.664990	27.205500
232	1	3.232000	3.731992	29.796500
233	1	1.616000	4.664990	32.387500
234	1	3.232000	3.731992	34.978500
235	1	1.616000	4.664990	37.569500
236	1	3.232000	3.731992	40.160500
237	1	1.616000	4.664990	42.751500
238	1	3.232000	3.731992	45.342500
239	1	1.616000	4.664990	47.933500
240	1	3.232000	3.731992	50.524500
241	1	0.000000	7.463984	1.295500
242	1	1.616000	6.530986	3.886500
243	1	0.000000	7.463984	6.477500
244	1	1.616000	6.530986	9.068500
245	1	0.000000	7.463984	11.659500
246	1	1.616000	6.530986	14.250500
247	1	0.000000	7.463984	16.841500
248	1	1.616000	6.530986	19.432500
249	1	0.000000	7.463984	22.023500
250	1	1.616000	6.530986	24.614500
251	1	0.000000	7.463984	27.205500
252	1	1.616000	6.530986	29.796500
253	1	0.000000	7.463984	32.387500
254	1	1.616000	6.530986	34.978500
255	1	0.000000	7.463984	37.569500
256	1	1.616000	6.530986	40.160500
257	1	0.000000	7.463984	42.751500
258	1	1.616000	6.530986	45.342500
259	1	0.000000	7.463984	47.933500
260	1	1.616000	6.530986	50.524500
261	1	-1.616000	10.262978	1.295500
262	1	0.000000	9.329980	3.886500
263	1	-1.616000	10.262978	6.477500
264	1	0.000000	9.329980	9.068500
265	1	-1.616000	10.262978	11.659500
266	1	0.000000	9.329980	14.250500
267	1	-1.616000	10.262978	16.841500
268	1	0.000000	9.329980	19.432500
269	1	-1.616000	10.262978	22.023500
270	1	0.000000	9.329980	24.614500
271	1	-1.616000	10.262978	27.205500
272	1	0.000000	9.329980	29.796500
273	1	-1.616000	10.262978	32.387500
274	1	0.000000	9.329980	34.978500
275	1	-1.616000	10.262978	37.569500
276	1	0.000000	9.329980	40.160500
277	1	-1.616000	10.262978	42.751500
278	1	0.000000	9.329980	45.342500
279	1	-1.616000	10.262978	47.933500
280	1	0.000000	9.329980	50.524500
281	1	-3.232000	13.061972	1.295500
282	1	-1.616000	12.128974	3.886500
283	1	-3.232000	13.061972	6.477500
284	1	-1.616000	12.128974	9.068500
285	1	-3.232000	13.061972	11.659500
286	1	-1.616000	12.128974	14.250500
287	1	-3.232000	13.061972	16.841500
288	1	-1.616000	12.128974	19.432500
289	1	-3.232000	13.061972	22.023500
290	1	-1.616000	12.128974	24.614500
291	1	-3.232000	13.061972	27.205500
292	1	-1.616000	12.128974	29.796500
293	1	-3.232000	13.061972	32.387500
294	1	-1.616000	12.128974	34.978500
295	1	-3.232000	13.061972	37.569500
296	1	-1.616000	12.128974	40.160500
297	1	-3.232000	13.061972	42.751500
298	1	-1.616000	12.128974	45.342500
299	1	-3.232000	13.061972	47.933500
300	1	-1.616000	12.128974	50.524500
301	1	-4.848000	15.860966	1.295500
302	1	-3.232000	14.927968	3.886500
303	1	-4.848000	15.860966	6.477500
304	1	-3.232000	14.927968	9.068500
305	1	-4.848000	15.860966	11.659500
306	1	-3.232000	14.927968	14.250500
307	1	-4.848000	15.860966	16.841500
308	1	-3.232000	14.927968	19.432500
309	1	-4.848000	15.860966	22.023500
310	1	-3.232000	14.927968	24.614500
311	1	-4.848000	15.860966	27.205500
312	1	-3.232000	14.927968	29.796500
313	1	-4.848000	15.860966	32.387500
314	1	-3.232000	14.927968	34.978500
315	1	-4.848000	15.860966	37.569500
316	1	-3.232000	14.927968	40.160500
317	1	-4.848000	15.860966	42.751500
318	1	-3.232000	14.927968	45.342500
319	1	-4.848000	15.860966	47.933500
320	1	-3.232000	14.927968	50.524500
321	1	-6.464000	18.659960	1.295500
322	1	-4.848000	17.726962	3.886500
323	1	-6.464000	18.659960	6.477500
324	1	-4.848000	17.726962	9.068500
325	1	-6.464000	18.659960	11.659500
326	1	-4.848000	17.726962	14.250500
327	1	-6.464000	18.659960	16.841500
328	1	-4.848000	17.726962	19.432500
329	1	-6.464000	18.659960	22.023500
330	1	-4.848000	17.726962	24.614500
331	1	-6.464000	18.659960	27.205500
332	1	-4.848000	17.726962	29.796500
333	1	-6.464000	18.659960	32.387500
334	1	-4.848000	17.726962	34.978500
335	1	-6.464000	18.659960	37.569500
336	1	-4.848000	17.726962	40.160500
337	1	-6.464000	18.659960	42.751500
338	1	-4.848000	17.726962	45.342500
339	1	-6.464000	18.659960	47.933500
340	1	-4.848000	17.726962	50.524500
341	1	-8.080000	21.458954	1.295500
342	1	-6.464000	20.525956	3.886500
343	1	-8.080000	21.458954	6.477500
344	1	-6.464000	20.525956	9.068500
345	1	-8.080000	21.458954	11.659500
346	1	-6.464000	20.525956	14.250500
347	1	-8.080000	21.458954	16.841500
348	1	-6.464000	20.525956	19.432500
349	1	-8.080000	21.458954	22.023500
350	1	-6.464000	20.525956	24.614500
351	1	-8.080000	21.458954	27.205500
352	1	-6.464000	20.525956	29.796500
353	1	-8.080000	21.458954	32.387500
354	1	-6.464000	20.525956	34.978500
355	1	-8.080000	21.458954	37.569500
356	1	-6.464000	20.525956	40.160500
357	1	-8.080000	21.458954	42.751500
358	1	-6.464000	20.525956	45.342500
359	1	-8.080000	21.458954	47.933500
360	1	-6.464000	20.525956	50.524500
361	1	-9.696000	24.257948	1.295500
362	1	-8.080000	23.324950	3.886500
363	1	-9.696000	24.257948	6.477500
364	1	-8.080000	23.324950	9.068500
365	1	-9.696000	24.257948	11.659500
366	1	-8.080000	23.324950	14.250500
367	1	-9.696000	24.257948	16.841500
368	1	-8.080000	23.324950	19.432500
369	1	-9.696000	24.257948	22.023500
370	1	-8.080000	23.324950	24.614500
371	1	-9.696000	24.257948	27.205500
372	1	-8.080000	23.324950	29.796500
373	1	-9.696000	24.257948	32.387500
374	1	-8.080000	23.324950	34.978500
375	1	-9.696000	24.257948	37.569500
376	1	-8.080000	23.324950	40.160500
377	1	-9.696000	24.257948	42.751500
378	1	-8.080000	23.324950	45.342500
379	1	-9.696000	24.257948	47.933500
380	1	-8.080000	23.324950	50.524500
381	1	-11.312000	27.056942	1.295500
382	1	-9.696000	26.123944	3.886500
383	1	-11.312000	27.056942	6.477500
384	1	-9.696000	26.123944	9.068500
385	1	-11.312000	27.056942	11.659500
386	1	-9.696000	26.123944	14.250500
387	1	-11.312000	27.056942	16.841500
388	1	-9.696000	26.123944	19.432500
389	1	-11.312000	27.056942	22.023500
390	1	-9.696000	26.123944	24.614500
391	1	-11.312000	27.056942	27.205500
392	1	-9.696000	26.123944	29.796500
393	1	-11.312000	27.056942	32.387500
394	1	-9.696000	26.123944	34.978500
395	1	-11.312000	27.056942	37.569500
396	1	-9.696000	26.123944	40.160500
397	1	-11.312000	27.056942	42.751500
398	1	-9.696000	26.123944	45.342500
399	1	-11.312000	27.056942	47.933500
400	1	-9.696000	26.123944	50.524500
401	1	6.464000	1.865996	1.295500
402	1	8.080000	0.932998	3.886500
403	1	6.464000	1.865996	6.477500
404	1	8.080000	0.932998	9.068500
405	1	6.464000	1.865996	11.659500
406	1	8.080000	0.932998	14.250500
407	1	6.464000	1.865996	16.841500
408	1	8.080000	0.932998	19.432500
409	1	6.464000	1.865996	22.023500
410	1	8.080000	0.932998	24.614500
411	1	6.464000	1.865996	27.205500
412	1	8.080000	0.932998	29.796500
413	1	6.464000	1.865996	32.387500
414	1	8.080000	0.932998	34.978500
415	1	6.464000	1.865996	37.569500
416	1	8.080000	0.932998	40.160500
417	1	6.464000	1.865996	42.751500
418	1	8.080000	0.932998	45.342500
419	1	6.464000	1.865996	47.933500
420	1	8.080000	0.932998	50.524500
421	1	4.848000	4.664990	1.295500
422	1	6.464000	3.731992	3.886500
423	1	4.848000	4.664990	6.477500
424	1	6.464000	3.731992	9.068500
425	1	4.848000	4.664990	11.659500
426	1	6.464000	3.731992	14.250500
427	1	4.848000	4.664990	16.841500
428	1	6.464000	3.731992	19.432500
429	1	4.848000	4.664990	22.023500
430	1	6.464000	3.731992	24.614500
431	1	4.848000	4.664990	27.205500
432	1	6.464000	3.731992	29.796500
433	1	4.848000	4.664990	32.387500
434	1	6.464000	3.731992	34.978500
435	1	4.848000	4.664990	37.569500
436	1	6.464000	3.731992	40.160500
437	1	4.848000	4.664990	42.751500
438	1	6.464000	3.731992	45.342500
439	1	4.848000	4.664990	47.933500
440	1	6.464000	3.731992	50.524500
441	1	3.232000	7.463984	1.295500
442	1	4.848000	6.530986	3.886500
443	1	3.232000	7.463984	6.477500
444	1	4.848000	6.530986	9.068500
445	1	3.232000	7.463984	11.659500
446	1	4.848000	6.530986	14.250500
447	1	3.232000	7.463984	16.841500
448	1	4.848000	6.530986	19.432500
449	1	3.232000	7.463984	22.023500
450	1	4.848000	6.530986	24.614500
451	1	3.232000	7.463984	27.205500
452	1	4.848000	6.530986	29.796500
453	1	3.232000	7.463984	32.387500
454	1	4.848000	6.530986	34.978500
455	1	3.232000	7.463984	37.569500
456	1	4.848000	6.530986	40.160500
457	1	3.232000	7.463984	42.751500
458	1	4.848000	6.530986	45.342500
459	1	3.232000	7.463984	47.933500
460	1	4.848000	6.530986	50.524500
461	1	1.616000	10.262978	1.295500
462	1	3.232000	9.329980	3.886500
463	1	1.616000	10.262978	6.477500
464	1	3.232000	9.329980	9.068500
465	1	1.616000	10.262978	11.659500
466	1	3.232000	9.329980	14.250500
467	1	1.616000	10.262978	16.841500
468	1	3.232000	9.329980	19.432500
469	1	1.616000	10.262978	22.023500
470	1	3.232000	9.329980	24.614500
471	1	1.616000	10.262978	27.205500
472	1	3.232000	9.329980	29.796500
473	1	1.616000	10.262978	32.387500
474	1	3.232000	9.329980	34.978500
475	1	1.616000	10.262978	37.569500
476	1	3.232000	9.329980	40.160500
477	1	1.616000	10.262978	42.751500
478	1	3.232000	9.329980	45.342500
479	1	1.616000	10.262978	47.933500
480	1	3.232000	9.329980	50.524500
481	1	0.000000	13.061972	1.295500
482	1	1.616000	12.128974	3.886500
483	1	0.000000	13.061972	6.477500
484	1	1.616000	12.128974	9.068500
485	1	0.000000	13.061972	11.659500
486	1	1.616000	12.128974	14.250500
487	1	0.000000	13.061972	16.841500
488	1	1.616000	12.128974	19.432500
489	1	0.000000	13.061972	22.023500
490	1	1.616000	12.128974	24.614500
491	1	0.000000	13.061972	27.205500
492	1	1.616000	12.128974	29.796500
493	1	0.000000	13.061972	32.387500
494	1	1.616000	12.128974	34.978500
495	1	0.000000	13.061972	37.569500
496	1	1.616000	12.128974	40.160500
497	1	0.000000	13.061972	42.751500
498	1	1.616000	12.128974	45.342500
499	1	0.000000	13.061972	47.933500
500	1	1.616000	12.128974	50.524500
501	1	-1.616000	15.860966	1.295500
502	1	0.000000	14.927968	3.886500
503	1	-1.616000	15.860966	6.477500
504	1	0.000000	14.927968	9.068500
505	1	-1.616000	15.860966	11.659500
506	1	0.000000	14.927968	14.250500
507	1	-1.616000	15.860966	16.841500
508	1	0.000000	14.927968	19.432500
509	1	-1.616000	15.860966	22.023500
510	1	0.000000	14.927968	24.614500
511	1	-1.616000	15.860966	27.205500
512	1	0.000000	14.927968	29.796500
513	1	-1.616000	15.860966	32.387500
514	1	0.000000	14.927968	34.978500
515	1	-1.616000	15.860966	37.569500
516	1	0.000000	14.927968	40.160500
517	1	-1.616000	15.860966	42.751500
518	1	0.000000	14.927968	45.342500
519	1	-1.616000	15.860966	47.933500
520	1	0.000000	14.927968	50.524500
521	1	-3.232000	18.659960	1.295500
522	1	-1.616000	17.726962	3.886500
523	1	-3.232000	18.659960	6.477500
524	1	-1.616000	17.726962	9.068500
525	1	-3.232000	18.659960	11.659500
526	1	-1.616000	17.726962	14.250500
527	1	-3.232000	18.659960	16.841500
528	1	-1.616000	17.726962	19.432500
529	1	-3.232000	18.659960	22.023500
530	1	-1.616000	17.726962	24.614500
531	1	-3.232000	18.659960	27.205500
532	1	-1.616000	17.726962	29.796500
533	1	-3.232000	18.659960	32.387500
534	1	-1.616000	17.726962	34.978500
535	1	-3.232000	18.659960	37.569500
536	1	-1.616000	17.726962	40.160500
537	1	-3.232000	18.659960	42.751500
538	1	-1.616000	17.726962	45.342500
539	1	-3.232000	18.659960	47.933500
540	1	-1.616000	17.726962	50.524500
541	1	-4.848000	21.458954	1.295500
542	1	-3.232000	20.525956	3.886500
543	1	-4.848000	21.458954	6.477500
544	1	-3.232000	20.525956	9.068500
545	1	-4.848000	21.458954	11.659500
546	1	-3.232000	20.525956	14.250500
547	1	-4.848000	21.458954	16.841500
548	1	-3.232000	20.525956	19.432500
549	1	-4.848000	21.458954	22.023500
550	1	-3.232000	20.525956	24.614500
551	1	-4.848000	21.458954	27.205500
552	1	-3.232000	20.525956	29.796500
553	1	-4.848000	21.458954	32.387500
554	1	-3.232000	20.525956	34.978500
555	1	-4.848000	21.458954	37.569500
556	1	-3.232000	20.525956	40.160500
557	1	-4.848000	21.458954	42.751500
558	1	-3.232000	20.525956	45.342500
559	1	-4.848000	21.458954	47.933500
560	1	-3.232000	20.525956	50.524500
561	1	-6.464000	24.257948	1.295500
562	1	-4.848000	23.324950	3.886500
563	1	-6.464000	24.257948	6.477500
564	1	-4.848000	23.324950	9.068500
565	1	-6.464000	24.257948	11.659500
566	1	-4.848000	23.324950	14.250500
567	1	-6.464000	24.257948	16.841500
568	1	-4.848000	23.324950	19.432500
569	1	-6.464000	24.257948	22.023500
570	1	-4.848000	23.324950	24.614500
571	1	-6.464000	24.257948	27.205500
572	1	-4.848000	23.324950	29.796500
573	1	-6.464000	24.257948	32.387500
574	1	-4.848000	23.324950	34.978500
575	1	-6.464000	24.257948	37.569500
576	1	-4.848000	23.324950	40.160500
577	1	-6.464000	24.257948	42.751500
578	1	-4.848000	23.324950	45.342500
579	1	-6.464000	24.257948	47.933500
580	1	-4.848000	23.324950	50.524500
581	1	-8.080000	27.056942	1.295500
582	1	-6.464000	26.123944	3.886500
583	1	-8.080000	27.056942	6.477500
584	1	-6.464000	26.123944	9.068500
585	1	-8.080000	27.056942	11.659500
586	1	-6.464000	26.123944	14.250500
587	1	-8.080000	27.056942	16.841500
588	1	-6.464000	26.123944	19.432500
589	1	-8.080000	27.056942	22.023500
590	1	-6.464000	26.123944	24.614500
591	1	-8.080000	27.056942	27.205500
592	1	-6.464000	26.123944	29.796500
593	1	-8.080000	27.056942	32.387500
594	1	-6.464000	26.123944	34.978500
595	1	-8.080000	27.056942	37.569500
596	1	-6.464000	26.123944	40.160500
597	1	-8.080000	27.056942	42.751500
598	1	-6.464000	26.123944	45.342500
599	1	-8.080000	27.056942	47.933500
600	1	-6.464000	26.123944	50.524500
601	1	9.696000	1.865996	1.295500
602	1	11.312000	0.932998	3.886500
603	1	9.696000	1.865996	6.477500
604	1	11.312000	0.932998	9.068500
605	1	9.696000	1.865996	11.659500
606	1	11.312000	0.932998	14.250500
607	1	9.696000	1.865996	16.841500
608	1	11.312000	0.932998	19.432500
609	1	9.696000	1.865996	22.023500
610	1	11.312000	0.932998	24.614500
611	1	9.696000	1.865996	27.205500
612	1	11.312000	0.932998	29.796500
613	1	9.696000	1.865996	32.387500
614	1	11.312000	0.932998	34.978500
615	1	9.696000	1.865996	37.569500
616	1	11.312000	0.932998	40.160500
617	1	9.696000	1.865996	42.751500
618	1	11.312000	0.932998	45.342500
619	1	9.696000	1.865996	47.933500
620	1	11.312000	0.932998	50.524500
621	1	8.080000	4.664990	1.295500
622	1	9.696000	3.731992	3.886500
623	1	8.080000	4.664990	6.477500
624	1	9.696000	3.731992	9.068500
625	1	8.080000	4.664990	11.659500
626	1	9.696000	3.731992	14.250500
627	1	8.080000	4.664990	16.841500
628	1	9.696000	3.731992	19.432500
629	1	8.080000	4.664990	22.023500
630	1	9.696000	3.731992	24.614500
631	1	8.080000	4.664990	27.205500
632	1	9.696000	3.731992	29.796500
633	1	8.080000	4.664990	32.387500
634	1	9.696000	3.731992	34.978500
635	1	8.080000	4.664990	37.569500
636	1	9.696000	3.731992	40.160500
637	1	8.080000	4.664990	42.751500
638	1	9.696000	3.731992	45.342500
639	1	8.080000	4.664990	47.933500
640	1	9.696000	3.731992	50.524500
641	1	6.464000	7.463984	1.295500
642	1	8.080000	6.530986	3.886500
643	1	6.464000	7.463984	6.477500
644	1	8.080000	6.530986	9.068500
645	1	6.464000	7.463984	11.659500
646	1	8.080000	6.530986	14.250500
647	1	6.464000	7.463984	16.841500
648	1	8.080000	6.530986	19.432500
649	1	6.464000	7.463984	22.023500
650	1	8.080000	6.530986	24.614500
651	1	6.464000	7.463984	27.205500
652	1	8.080000	6.530986	29.796500
653	1	6.464000	7.463984	32.387500
654	1	8.080000	6.530986	34.978500
655	1	6.464000	7.463984	37.569500
656	1	8.080000	6.530986	40.160500
657	1	6.464000	7.463984	42.751500
658	1	8.080000	6.530986	45.342500
659	1	6.464000	7.463984	47.933500
660	1	8.080000	6.530986	50.524500
661	1	4.848000	10.262978	1.295500
662	1	6.464000	9.329980	3.886500
663	1	4.848000	10.262978	6.477500
664	1	6.464000	9.329980	9.068500
665	1	4.848000	10.262978	11.659500
666	1	6.464000	9.329980	14.250500
667	1	4.848000	10.262978	16.841500
668	1	6.464000	9.329980	19.432500
669	1	4.848000	10.262978	22.023500
670	1	6.464000	9.329980	24.614500
671	1	4.848000	10.262978	27.205500
672	1	6.464000	9.329980	29.796500
673	1	4.848000	10.262978	32.387500
674	1	6.464000	9.329980	34.978500
675	1	4.848000	10.262978	37.569500
676	1	6.464000	9.329980	40.160500
677	1	4.848000	10.262978	42.751500
678	1	6.464000	9.329980	45.342500
679	1	4.848000	10.262978	47.933500
680	1	6.464000	9.329980	50.524500
681	1	3.232000	13.061972	1.295500
682	1	4.848000	12.128974	3.886500
683	1	3.232000	13.061972	6.477500
684	1	4.848000	12.128974	9.068500
685	1	3.232000	13.061972	11.659500
686	1	4.848000	12.128974	14.250500
687	1	3.232000	13.061972	16.841500
688	1	4.848000	12.128974	19.432500
689	1	3.232000	13.061972	22.023500
690	1	4.848000	12.128974	24.614500
691	1	3.232000	13.061972	27.205500
692	1	4.848000	12.128974	29.796500
693	1	3.232000	13.061972	32.387500
694	1	4.848000	12.128974	34.978500
695	1	3.232000	13.061972	37.569500
696	1	4.848000	12.128974	40.160500
697	1	3.232000	13.061972	42.751500
698	1	4.848000	12.128974	45.342500
699	1	3.232000	13.061972	47.933500
700	1	4.848000	12.128974	50.524500
701	1	1.616000	15.860966	1.295500
702	1	3.232000	14.927968	3.886500
703	1	1.616000	15.860966	6.477500
704	1	3.232000	14.927968	9.068500
705	1	1.616000	15.860966	11.659500
706	1	3.232000	14.927968	14.250500
707	1	1.616000	15.860966	16.841500
708	1	3.232000	14.927968	19.432500
709	1	1.616000	15.860966	22.023500
710	1	3.232000	14.927968	24.614500
711	1	1.616000	15.860966	27.205500
712	1	3.232000	14.927968	29.796500
713	1	1.616000	15.860966	32.387500
714	1	3.232000	14.927968	34.978500
715	1	1.616000	15.860966	37.569500
716	1	3.232000	14.927968	40.160500
717	1	1.616000	15.860966	42.751500
718	1	3.232000	14.927968	45.342500
719	1	1.616000	15.860966	47.933500
720	1	3.232000	14.927968	50.524500
721	1	0.000000	18.659960	1.295500
722	1	1.616000	17.726962	3.886500
723	1	0.000000	18.659960	6.477500
724	1	1.616000	17.726962	9.068500
725	1	0.000000	18.659960	11.659500
726	1	1.616000	17.726962	14.250500
727	1	0.000000	18.659960	16.841500
728	1	1.616000	17.726962	19.432500
729	1	0.000000	18.659960	22.023500
730	1	1.616000	17.726962	24.614500
731	1	0.000000	18.659960	27.205500
732	1	1.616000	17.726962	29.796500
733	1	0.000000	18.659960	32.387500
734	1	1.616000	17.726962	34.978500
735	1	0.000000	18.659960	37.569500
736	1	1.616000	17.726962	40.160500
737	1	0.000000	18.659960	42.751500
738	1	1.616000	17.726962	45.342500
739	1	0.000000	18.659960	47.933500
740	1	1.616000	17.726962	50.524500
741	1	-1.616000	21.458954	1.295500
742	1	0.000000	20.525956	3.886500
743	1	-1.616000	21.458954	6.477500
744	1	0.000000	20.525956	9.068500
745	1	-1.616000	21.458954	11.659500
746	1	0.000000	20.525956	14.250500
747	1	-1.616000	21.458954	16.841500
748	1	0.000000	20.525956	19.432500
749	1	-1.616000	21.458954	22.023500
750	1	0.000000	20.525956	24.614500
751	1	-1.616000	21.458954	27.205500
752	1	0.000000	20.525956	29.796500
753	1	-1.616000	21.458954	32.387500
754	1	0.000000	20.525956	34.978500
755	1	-1.616000	21.458954	37.569500
756	1	0.000000	20.525956	40.160500
757	1	-1.616000	21.458954	42.751500
758	1	0.000000	20.525956	45.342500
759	1	-1.616000	21.458954	47.933500
760	1	0.000000	20.525956	50.524500
761	1	-3.232000	24.257948	1.295500
762	1	-1.616000	23.324950	3.886500
763	1	-3.232000	24.257948	6.477500
764	1	-1.616000	23.324950	9.068500
765	1	-3.232000	24.257948	11.659500
766	1	-1.616000	23.324950	14.250500
767	1	-3.232000	24.257948	16.841500
768	1	-1.616000	23.324950	19.432500
769	1	-3.232000	24.257948	22.023500
770	1	-1.616000	23.324950	24.614500
771	1	-3.232000	24.257948	27.205500
772	1	-1.616000	23.324950	29.796500
773	1	-3.232000	24.257948	32.387500
774	1	-1.616000	23.324950	34.978500
775	1	-3.232000	24.257948	37.569500
776	1	-1.616000	23.324950	40.160500
777	1	-3.232000	24.257948	42.751500
778	1	-1.616000	23.324950	45.342500
779	1	-3.232000	24.257948	47.933500
780	1	-1.616000	23.324950	50.524500
781	1	-4.848000	27.056942	1.295500
782	1	-3.232000	26.123944	3.886500
783	1	-4.848000	27.056942	6.477500
784	1	-3.232000	26.123944	9.068500
785	1	-4.848000	27.056942	11.659500
786	1	-3.232000	26.123944	14.250500
787	1	-4.848000	27.056942	16.841500
788	1	-3.232000	26.123944	19.432500
789	1	-4.848000	27.056942	22.023500
790	1	-3.232000	26.123944	24.614500
791	1	-4.848000	27.056942	27.205500
792	1	-3.232000	26.123944	29.796500
793	1	-4.848000	27.056942	32.387500
794	1	-3.232000	26.123944	34.978500
795	1	-4.848000	27.056942	37.569500
796	1	-3.232000	26.123944	40.160500
797	1	-4.848000	27.056942	42.751500
798	1	-3.232000	26.123944	45.342500
799	1	-4.848000	27.056942	47.933500
800	1	-3.232000	26.123944	50.524500
801	1	12.928000	1.865996	1.295500
802	1	14.544000	0.932998	3.886500
803	1	12.928000	1.865996	6.477500
804	1	14.544000	0.932998	9.068500
805	1	12.928000	1.865996	11.659500
806	1	14.544000	0.932998	14.250500
807	1	12.928000	1.865996	16.841500
808	1	14.544000	0.932998	19.432500
809	1	12.928000	1.865996	22.023500
810	1	14.544000	0.932998	24.614500
811	1	12.928000	1.865996	27.205500
812	1	14.544000	0.932998	29.796500
813	1	12.928000	1.865996	32.387500
814	1	14.544000	0.932998	34.978500
815	1	12.928000	1.865996	37.569500
816	1	14.544000	0.932998	40.160500
817	1	12.928000	1.865996	42.751500
818	1	14.544000	0.932998	45.342500
819	1	12.928000	1.865996	47.933500
820	1	14.544000	0.932998	50.524500
821	1	11.312000	4.664990	1.295500
822	1	12.928000	3.731992	3.886500
823	1	11.312000	4.664990	6.477500
824	1	12.928000	3.731992	9.068500
825	1	11.312000	4.664990	11.659500
826	1	12.928000	3.731992	14.250500
827	1	11.312000	4.664990	16.841500
828	1	12.928000	3.731992	19.432500
829	1	11.312000	4.664990	22.023500
830	1	12.928000	3.731992	24.614500
831	1	11.312000	4.664990	27.205500
832	1	12.928000	3.731992	29.796500
833	1	11.312000	4.664990	32.387500
834	1	12.928000	3.731992	34.978500
835	1	11.312000	4.664990	37.569500
836	1	12.928000	3.731992	40.160500
837	1	11.312000	4.664990	42.751500
838	1	12.928000	3.731992	45.342500
839	1	11.312000	4.664990	47.933500
840	1	12.928000	3.731992	50.524500
841	1	9.696000	7.463984	1.295500
842	1	11.312000	6.530986	3.886500
843	1	9.696000	7.463984	6.477500
844	1	11.312000	6.530986	9.068500
845	1	9.696000	7.463984	11.659500
846	1	11.312000	6.530986	14.250500
847	1	9.696000	7.463984	16.841500
848	1	11.312000	6.530986	19.432500
849	1	9.696000	7.463984	22.023500
850	1	11.312000	6.530986	24.614500
851	1	9.696000	7.463984	27.205500
852	1	11.312000	6.530986	29.796500
853	1	9.696000	7.463984	32.387500