Position data Generated by SPaMD
2000	atoms
1	atom types
0.000000		29.510000	xlo xhi
0.000000		25.556410	ylo yhi
0.000000		46.860000	zlo zhi
-14.755000		0.000000	0.000000	xy xz yz

Atoms

1	1	0.000000	1.703761	1.171500
2	1	1.475500	0.851880	3.514500
3	1	0.000000	1.703761	5.857500
4	1	1.475500	0.851880	8.200500
5	1	0.000000	1.703761	10.543500
6	1	1.475500	0.851880	12.886500
7	1	0.000000	1.703761	15.229500
8	1	1.475500	0.851880	17.572500
9	1	0.000000	1.703761	19.915500
10	1	1.475500	0.851880	22.258500
11	1	0.000000	1.703761	24.601500
12	1	1.475500	0.851880	26.944500
13	1	0.000000	1.703761	29.287500
14	1	1.475500	0.851880	31.630500
15	1	0.000000	1.703761	33.973500
16	1	1.475500	0.851880	36.316500
17	1	0.000000	1.703761	38.659500
18	1	1.475500	0.851880	41.002500
19	1	0.000000	1.703761	43.345500
20	1	1.475500	0.851880	45.688500
21	1	-1.475500	4.259402	1.171500
22	1	0.000000	3.407521	3.514500
23	1	-1.475500	4.259402	5.857500
24	1	0.000000	3.407521	8.200500
25	1	-1.475500	4.259402	10.543500
26	1	0.000000	3.407521	12.886500
27	1	-1.475500	4.259402	15.229500
28	1	0.000000	3.407521	17.572500
29	1	-1.475500	4.259402	19.915500
30	1	0.000000	3.407521	22.258500
31	1	-1.475500	4.259402	24.601500
32	1	0.000000	3.407521	26.944500
33	1	-1.475500	4.259402	29.287500
34	1	0.000000	3.407521	31.630500
35	1	-1.475500	4.259402	33.973500
36	1	0.000000	3.407521	36.316500
37	1	-1.475500	4.259402	38.659500
38	1	0.000000	3.407521	41.002500
39	1	-1.475500	4.259402	43.345500
40	1	0.000000	3.407521	45.688500
41	1	-2.951000	6.815043	1.171500
42	1	-1.475500	5.963162	3.514500
43	1	-2.951000	6.815043	5.857500
44	1	-1.475500	5.963162	8.200500
45	1	-2.951000	6.815043	10.543500
46	1	-1.475500	5.963162	12.886500
47	1	-2.951000	6.815043	15.229500
48	1	-1.475500	5.963162	17.572500
49	1	-2.951000	6.815043	19.915500
50	1	-1.475500	5.963162	22.258500
51	1	-2.951000	6.815043	24.601500
52	1	-1.475500	5.963162	26.944500
53	1	-2.951000	6.815043	29.287500
54	1	-1.475500	5.963162	31.630500
55	1	-2.951000	6.815043	33.973500
56	1	-1.475500	5.963162	36.316500
57	1	-2.951000	6.815043	38.659500
58	1	-1.475500	5.963162	41.002500
59	1	-2.951000	6.815043	43.345500
60	1	-1.475500	5.963162	45.688500
61	1	-4.426500	9.370684	1.171500
62	1	-2.951000	8.518803	3.514500
63	1	-4.426500	9.370684	5.857500
64	1	-2.951000	8.518803	8.200500
65	1	-4.426500	9.370684	10.543500
66	1	-2.951000	8.518803	12.886500
67	1	-4.426500	9.370684	15.229500
68	1	-2.951000	8.518803	17.572500
69	1	-4.426500	9.370684	19.915500
70	1	-2.951000	8.518803	22.258500
71	1	-4.426500	9.370684	24.601500
72	1	-2.951000	8.518803	26.944500
73	1	-4.426500	9.370684	29.287500
74	1	-2.951000	8.518803	31.630500
75	1	-4.426500	9.370684	33.973500
76	1	-2.951000	8.518803	36.316500
77	1	-4.426500	9.370684	38.659500
78	1	-2.951000	8.518803	41.002500
79	1	-4.426500	9.370684	43.345500
80	1	-2.951000	8.518803	45.688500
81	1	-5.902000	11.926325	1.171500
82	1	-4.426500	11.074444	3.514500
83	1	-5.902000	11.926325	5.857500
84	1	-4.426500	11.074444	8.200500
85	1	-5.902000	11.926325	10.543500
86	1	-4.426500	11.074444	12.886500
87	1	-5.902000	11.926325	15.229500
88	1	-4.426500	11.074444	17.572500
89	1	-5.902000	11.926325	19.915500
90	1	-4.426500	11.074444	22.258500
91	1	-5.902000	11.926325	24.601500
92	1	-4.426500	11.074444	26.944500
93	1	-5.902000	11.926325	29.287500
94	1	-4.426500	11.074444	31.630500
95	1	-5.902000	11.926325	33.973500
96	1	-4.426500	11.074444	36.316500
97	1	-5.902000	11.926325	38.659500
98	1	-4.426500	11.074444	41.002500
99	1	-5.902000	11.926325	43.345500
100	1	-4.426500	11.074444	45.688500
101	1	-7.377500	14.481966	1.171500
102	1	-5.902000	13.630085	3.514500
103	1	-7.377500	14.481966	5.857500
104	1	-5.902000	13.630085	8.200500
105	1	-7.377500	14.481966	10.543500
106	1	-5.902000	13.630085	12.886500
107	1	-7.377500	14.481966	15.229500
108	1	-5.902000	13.630085	17.572500
109	1	-7.377500	14.481966	19.915500
110	1	-5.902000	13.630085	22.258500
111	1	-7.377500	14.481966	24.601500
112	1	-5.902000	13.630085	26.944500
113	1	-7.377500	14.481966	29.287500
114	1	-5.902000	13.630085	31.630500
115	1	-7.377500	14.481966	33.973500
116	1	-5.902000	13.630085	36.316500
117	1	-7.377500	14.481966	38.659500
118	1	-5.902000	13.630085	41.002500
119	1	-7.377500	14.481966	43.345500
120	1	-5.902000	13.630085	45.688500
121	1	-8.853000	17.037607	1.171500
122	1	-7.377500	16.185726	3.514500
123	1	-8.853000	17.037607	5.857500
124	1	-7.377500	16.185726	8.200500
125	1	-8.853000	17.037607	10.543500
126	1	-7.377500	16.185726	12.886500
127	1	-8.853000	17.037607	15.229500
128	1	-7.377500	16.185726	17.572500
129	1	-8.853000	17.037607	19.915500
130	1	-7.377500	16.185726	22.258500
131	1	-8.853000	17.037607	24.601500
132	1	-7.377500	16.185726	26.944500
133	1	-8.853000	17.037607	29.287500
134	1	-7.377500	16.185726	31.630500
135	1	-8.853000	17.037607	33.973500
136	1	-7.377500	16.185726	36.316500
137	1	-8.853000	17.037607	38.659500
138	1	-7.377500	16.185726	41.002500
139	1	-8.853000	17.037607	43.345500
140	1	-7.377500	16.185726	45.688500
141	1	-10.328500	19.593248	1.171500
142	1	-8.853000	18.741367	3.514500
143	1	-10.328500	19.593248	5.857500
144	1	-8.853000	18.741367	8.200500
145	1	-10.328500	19.593248	10.543500
146	1	-8.853000	18.741367	12.886500
147	1	-10.328500	19.593248	15.229500
148	1	-8.853000	18.741367	17.572500
149	1	-10.328500	19.593248	19.915500
150	1	-8.853000	18.741367	22.258500
151	1	-10.328500	19.593248	24.601500
152	1	-8.853000	18.741367	26.944500
153	1	-10.328500	19.593248	29.287500
154	1	-8.853000	18.741367	31.630500
155	1	-10.328500	19.593248	33.973500
156	1	-8.853000	18.741367	36.316500
157	1	-10.328500	19.593248	38.659500
158	1	-8.853000	18.741367	41.002500
159	1	-10.328500	19.593248	43.345500
160	1	-8.853000	18.741367	45.688500
161	1	-11.804000	22.148889	1.171500
162	1	-10.328500	21.297008	3.514500
163	1	-11.804000	22.148889	5.857500
164	1	-10.328500	21.297008	8.200500
165	1	-11.804000	22.148889	10.543500
166	1	-10.328500	21.297008	12.886500
167	1	-11.804000	22.148889	15.229500
168	1	-10.328500	21.297008	17.572500
169	1	-11.804000	22.148889	19.915500
170	1	-10.328500	21.297008	22.258500
171	1	-11.804000	22.148889	24.601500
172	1	-10.328500	21.297008	26.944500
173	1	-11.804000	22.148889	29.287500
174	1	-10.328500	21.297008	31.630500
175	1	-11.804000	22.148889	33.973500
176	1	-10.328500	21.297008	36.316500
177	1	-11.804000	22.148889	38.659500
178	1	-10.328500	21.297008	41.002500
179	1	-11.804000	22.148889	43.345500
180	1	-10.328500	21.297008	45.688500
181	1	-13.279500	24.704530	1.171500
182	1	-11.804000	23.852649	3.514500
183	1	-13.279500	24.704530	5.857500
184	1	-11.804000	23.852649	8.200500
185	1	-13.279500	24.704530	10.543500
186	1	-11.804000	23.852649	12.886500
187	1	-13.279500	24.704530	15.229500
188	1	-11.804000	23.852649	17.572500
189	1	-13.279500	24.704530	19.915500
190	1	-11.804000	23.852649	22.258500
191	1	-13.279500	24.704530	24.601500
192	1	-11.804000	23.852649	26.944500
193	1	-13.279500	24.704530	29.287500
194	1	-11.804000	23.852649	31.630500
195	1	-13.279500	24.704530	33.973500
196	1	-11.804000	23.852649	36.316500
197	1	-13.279500	24.704530	38.659500
198	1	-11.804000	23.852649	41.002500
199	1	-13.279500	24.704530	43.345500
200	1	-11.804000	23.852649	45.688500
201	1	2.951000	1.703761	1.171500
202	1	4.426500	0.851880	3.514500
203	1	2.951000	1.703761	5.857500
204	1	4.426500	0.851880	8.200500
205	1	2.951000	1.703761	10.543500
206	1	4.426500	0.851880	12.886500
207	1	2.951000	1.703761	15.229500
208	1	4.426500	0.851880	17.572500
209	1	2.951000	1.703761	19.915500
210	1	4.426500	0.851880	22.258500
211	1	2.951000	1.703761	24.601500
212	1	4.426500	0.851880	26.944500
213	1	2.951000	1.703761	29.287500
214	1	4.426500	0.851880	31.630500
215	1	2.951000	1.703761	33.973500
216	1	4.426500	0.851880	36.316500
217	1	2.951000	1.703761	38.659500
218	1	4.426500	0.851880	41.002500
219	1	2.951000	1.703761	43.345500
220	1	4.426500	0.851880	45.688500
221	1	1.475500	4.259402	1.171500
222	1	2.951000	3.407521	3.514500
223	1	1.475500	4.259402	5.857500
224	1	2.951000	3.407521	8.200500
225	1	1.475500	4.259402	10.543500
226	1	2.951000	3.407521	12.886500
227	1	1.475500	4.259402	15.229500
228	1	2.951000	3.407521	17.572500
229	1	1.475500	4.259402	19.915500
230	1	2.951000	3.407521	22.258500
231	1	1.475500	4.259402	24.601500
232	1	2.951000	3.407521	26.944500
233	1	1.475500	4.259402	29.287500
234	1	2.951000	3.407521	31.630500
235	1	1.475500	4.259402	33.973500
236	1	2.951000	3.407521	36.316500
237	1	1.475500	4.259402	38.659500
238	1	2.951000	3.407521	41.002500
239	1	1.475500	4.259402	43.345500
240	1	2.951000	3.407521	45.688500
241	1	0.000000	6.815043	1.171500
242	1	1.475500	5.963162	3.514500
243	1	0.000000	6.815043	5.857500
244	1	1.475500	5.963162	8.200500
245	1	0.000000	6.815043	10.543500
246	1	1.475500	5.963162	12.886500
247	1	0.000000	6.815043	15.229500
248	1	1.475500	5.963162	17.572500
249	1	0.000000	6.815043	19.915500
250	1	1.475500	5.963162	22.258500
251	1	0.000000	6.815043	24.601500
252	1	1.475500	5.963162	26.944500
253	1	0.000000	6.815043	29.287500
254	1	1.475500	5.963162	31.630500
255	1	0.000000	6.815043	33.973500
256	1	1.475500	5.963162	36.316500
257	1	0.000000	6.815043	38.659500
258	1	1.475500	5.963162	41.002500
259	1	0.000000	6.815043	43.345500
260	1	1.475500	5.963162	45.688500
261	1	-1.475500	9.370684	1.171500
262	1	0.000000	8.518803	3.514500
263	1	-1.475500	9.370684	5.857500
264	1	0.000000	8.518803	8.200500
265	1	-1.475500	9.370684	10.543500
266	1	0.000000	8.518803	12.886500
267	1	-1.475500	9.370684	15.229500
268	1	0.000000	8.518803	17.572500
269	1	-1.475500	9.370684	19.915500
270	1	0.000000	8.518803	22.258500
271	1	-1.475500	9.370684	24.601500
272	1	0.000000	8.518803	26.944500
273	1	-1.475500	9.370684	29.287500
274	1	0.000000	8.518803	31.630500
275	1	-1.475500	9.370684	33.973500
276	1	0.000000	8.518803	36.316500
277	1	-1.475500	9.370684	38.659500
278	1	0.000000	8.518803	41.002500
279	1	-1.475500	9.370684	43.345500
280	1	0.000000	8.518803	45.688500
281	1	-2.951000	11.926325	1.171500
282	1	-1.475500	11.074444	3.514500
283	1	-2.951000	11.926325	5.857500
284	1	-1.475500	11.074444	8.200500
285	1	-2.951000	11.926325	10.543500
286	1	-1.475500	11.074444	12.886500
287	1	-2.951000	11.926325	15.229500
288	1	-1.475500	11.074444	17.572500
289	1	-2.951000	11.926325	19.915500
290	1	-1.475500	11.074444	22.258500
291	1	-2.951000	11.926325	24.601500
292	1	-1.475500	11.074444	26.944500
293	1	-2.951000	11.926325	29.287500
294	1	-1.475500	11.074444	31.630500
295	1	-2.951000	11.926325	33.973500
296	1	-1.475500	11.074444	36.316500
297	1	-2.951000	11.926325	38.659500
298	1	-1.475500	11.074444	41.002500
299	1	-2.951000	11.926325	43.345500
300	1	-1.475500	11.074444	45.688500
301	1	-4.426500	14.481966	1.171500
302	1	-2.951000	13.630085	3.514500
303	1	-4.426500	14.481966	5.857500
304	1	-2.951000	13.630085	8.200500
305	1	-4.426500	14.481966	10.543500
306	1	-2.951000	13.630085	12.886500
307	1	-4.426500	14.481966	15.229500
308	1	-2.951000	13.630085	17.572500
309	1	-4.426500	14.481966	19.915500
310	1	-2.951000	13.630085	22.258500
311	1	-4.426500	14.481966	24.601500
312	1	-2.951000	13.630085	26.944500
313	1	-4.426500	14.481966	29.287500
314	1	-2.951000	13.630085	31.630500
315	1	-4.426500	14.481966	33.973500
316	1	-2.951000	13.630085	36.316500
317	1	-4.426500	14.481966	38.659500
318	1	-2.951000	13.630085	41.002500
319	1	-4.426500	14.481966	43.345500
320	1	-2.951000	13.630085	45.688500
321	1	-5.902000	17.037607	1.171500
322	1	-4.426500	16.185726	3.514500
323	1	-5.902000	17.037607	5.857500
324	1	-4.426500	16.185726	8.200500
325	1	-5.902000	17.037607	10.543500
326	1	-4.426500	16.185726	12.886500
327	1	-5.902000	17.037607	15.229500
328	1	-4.426500	16.185726	17.572500
329	1	-5.902000	17.037607	19.915500
330	1	-4.426500	16.185726	22.258500
331	1	-5.902000	17.037607	24.601500
332	1	-4.426500	16.185726	26.944500
333	1	-5.902000	17.037607	29.287500
334	1	-4.426500	16.185726	31.630500
335	1	-5.902000	17.037607	33.973500
336	1	-4.426500	16.185726	36.316500
337	1	-5.902000	17.037607	38.659500
338	1	-4.426500	16.185726	41.002500
339	1	-5.902000	17.037607	43.345500
340	1	-4.426500	16.185726	45.688500
341	1	-7.377500	19.593248	1.171500
342	1	-5.902000	18.741367	3.514500
343	1	-7.377500	19.593248	5.857500
344	1	-5.902000	18.741367	8.200500
345	1	-7.377500	19.593248	10.543500
346	1	-5.902000	18.741367	12.886500
347	1	-7.377500	19.593248	15.229500
348	1	-5.902000	18.741367	17.572500
349	1	-7.377500	19.593248	19.915500
350	1	-5.902000	18.741367	22.258500
351	1	-7.377500	19.593248	24.601500
352	1	-5.902000	18.741367	26.944500
353	1	-7.377500	19.593248	29.287500
354	1	-5.902000	18.741367	31.630500
355	1	-7.377500	19.593248	33.973500
356	1	-5.902000	18.741367	36.316500
357	1	-7.377500	19.593248	38.659500
358	1	-5.902000	18.741367	41.002500
359	1	-7.377500	19.593248	43.345500
360	1	-5.902000	18.741367	45.688500
361	1	-8.853000	22.148889	1.171500
362	1	-7.377500	21.297008	3.514500
363	1	-8.853000	22.148889	5.857500
364	1	-7.377500	21.297008	8.200500
365	1	-8.853000	22.148889	10.543500
366	1	-7.377500	21.297008	12.886500
367	1	-8.853000	22.148889	15.229500
368	1	-7.377500	21.297008	17.572500
369	1	-8.853000	22.148889	19.915500
370	1	-7.377500	21.297008	22.258500
371	1	-8.853000	22.148889	24.601500
372	1	-7.377500	21.297008	26.944500
373	1	-8.853000	22.148889	29.287500
374	1	-7.377500	21.297008	31.630500
375	1	-8.853000	22.148889	33.973500
376	1	-7.377500	21.297008	36.316500
377	1	-8.853000	22.148889	38.659500
378	1	-7.377500	21.297008	41.002500
379	1	-8.853000	22.148889	43.345500
380	1	-7.377500	21.297008	45.688500
381	1	-10.328500	24.704530	1.171500
382	1	-8.853000	23.852649	3.514500
383	1	-10.328500	24.704530	5.857500
384	1	-8.853000	23.852649	8.200500
385	1	-10.328500	24.704530	10.543500
386	1	-8.853000	23.852649	12.886500
387	1	-10.328500	24.704530	15.229500
388	1	-8.853000	23.852649	17.572500
389	1	-10.328500	24.704530	19.915500
390	1	-8.853000	23.852649	22.258500
391	1	-10.328500	24.704530	24.601500
392	1	-8.853000	23.852649	26.944500
393	1	-10.328500	24.704530	29.287500
394	1	-8.853000	23.852649	31.630500
395	1	-10.328500	24.704530	33.973500
396	1	-8.853000	23.852649	36.316500
397	1	-10.328500	24.704530	38.659500
398	1	-8.853000	23.852649	41.002500
399	1	-10.328500	24.704530	43.345500
400	1	-8.853000	23.852649	45.688500
401	1	5.902000	1.703761	1.171500
402	1	7.377500	0.851880	3.514500
403	1	5.902000	1.703761	5.857500
404	1	7.377500	0.851880	8.200500
405	1	5.902000	1.703761	10.543500
406	1	7.377500	0.851880	12.886500
407	1	5.902000	1.703761	15.229500
408	1	7.377500	0.851880	17.572500
409	1	5.902000	1.703761	19.915500
410	1	7.377500	0.851880	22.258500
411	1	5.902000	1.703761	24.601500
412	1	7.377500	0.851880	26.944500
413	1	5.902000	1.703761	29.287500
414	1	7.377500	0.851880	31.630500
415	1	5.902000	1.703761	33.973500
416	1	7.377500	0.851880	36.316500
417	1	5.902000	1.703761	38.659500
418	1	7.377500	0.851880	41.002500
419	1	5.902000	1.703761	43.345500
420	1	7.377500	0.851880	45.688500
421	1	4.426500	4.259402	1.171500
422	1	5.902000	3.407521	3.514500
423	1	4.426500	4.259402	5.857500
424	1	5.902000	3.407521	8.200500
425	1	4.426500	4.259402	10.543500
426	1	5.902000	3.407521	12.886500
427	1	4.426500	4.259402	15.229500
428	1	5.902000	3.407521	17.572500
429	1	4.426500	4.259402	19.915500
430	1	5.902000	3.407521	22.258500
431	1	4.426500	4.259402	24.601500
432	1	5.902000	3.407521	26.944500
433	1	4.426500	4.259402	29.287500
434	1	5.902000	3.407521	31.630500
435	1	4.426500	4.259402	33.973500
436	1	5.902000	3.407521	36.316500
437	1	4.426500	4.259402	38.659500
438	1	5.902000	3.407521	41.002500
439	1	4.426500	4.259402	43.345500
440	1	5.902000	3.407521	45.688500
441	1	2.951000	6.815043	1.171500
442	1	4.426500	5.963162	3.514500
443	1	2.951000	6.815043	5.857500
444	1	4.426500	5.963162	8.200500
445	1	2.951000	6.815043	10.543500
446	1	4.426500	5.963162	12.886500
447	1	2.951000	6.815043	15.229500
448	1	4.426500	5.963162	17.572500
449	1	2.951000	6.815043	19.915500
450	1	4.426500	5.963162	22.258500
451	1	2.951000	6.815043	24.601500
452	1	4.426500	5.963162	26.944500
453	1	2.951000	6.815043	29.287500
454	1	4.426500	5.963162	31.630500
455	1	2.951000	6.815043	33.973500
456	1	4.426500	5.963162	36.316500
457	1	2.951000	6.815043	38.659500
458	1	4.426500	5.963162	41.002500
459	1	2.951000	6.815043	43.345500
460	1	4.426500	5.963162	45.688500
461	1	1.475500	9.370684	1.171500
462	1	2.951000	8.518803	3.514500
463	1	1.475500	9.370684	5.857500
464	1	2.951000	8.518803	8.200500
465	1	1.475500	9.370684	10.543500
466	1	2.951000	8.518803	12.886500
467	1	1.475500	9.370684	15.229500
468	1	2.951000	8.518803	17.572500
469	1	1.475500	9.370684	19.915500
470	1	2.951000	8.518803	22.258500
471	1	1.475500	9.370684	24.601500
472	1	2.951000	8.518803	26.944500
473	1	1.475500	9.370684	29.287500
474	1	2.951000	8.518803	31.630500
475	1	1.475500	9.370684	33.973500
476	1	2.951000	8.518803	36.316500
477	1	1.475500	9.370684	38.659500
478	1	2.951000	8.518803	41.002500
479	1	1.475500	9.370684	43.345500
480	1	2.951000	8.518803	45.688500
481	1	0.000000	11.926325	1.171500
482	1	1.475500	11.074444	3.514500
483	1	0.000000	11.926325	5.857500
484	1	1.475500	11.074444	8.200500
485	1	0.000000	11.926325	10.543500
486	1	1.475500	11.074444	12.886500
487	1	0.000000	11.926325	15.229500
488	1	1.475500	11.074444	17.572500
489	1	0.000000	11.926325	19.915500
490	1	1.475500	11.074444	22.258500
491	1	0.000000	11.926325	24.601500
492	1	1.475500	11.074444	26.944500
493	1	0.000000	11.926325	29.287500
494	1	1.475500	11.074444	31.630500
495	1	0.000000	11.926325	33.973500
496	1	1.475500	11.074444	36.316500
497	1	0.000000	11.926325	38.659500
498	1	1.475500	11.074444	41.002500
499	1	0.000000	11.926325	43.345500
500	1	1.475500	11.074444	45.688500
501	1	-1.475500	14.481966	1.171500
502	1	0.000000	13.630085	3.514500
503	1	-1.475500	14.481966	5.857500
504	1	0.000000	13.630085	8.200500
505	1	-1.475500	14.481966	10.543500
506	1	0.000000	13.630085	12.886500
507	1	-1.475500	14.481966	15.229500
508	1	0.000000	13.630085	17.572500
509	1	-1.475500	14.481966	19.915500
510	1	0.000000	13.630085	22.258500
511	1	-1.475500	14.481966	24.601500
512	1	0.000000	13.630085	26.944500
513	1	-1.475500	14.481966	29.287500
514	1	0.000000	13.630085	31.630500
515	1	-1.475500	14.481966	33.973500
516	1	0.000000	13.630085	36.316500
517	1	-1.475500	14.481966	38.659500
518	1	0.000000	13.630085	41.002500
519	1	-1.475500	14.481966	43.345500
520	1	0.000000	13.630085	45.688500
521	1	-2.951000	17.037607	1.171500
522	1	-1.475500	16.185726	3.514500
523	1	-2.951000	17.037607	5.857500
524	1	-1.475500	16.185726	8.200500
525	1	-2.951000	17.037607	10.543500
526	1	-1.475500	16.185726	12.886500
527	1	-2.951000	17.037607	15.229500
528	1	-1.475500	16.185726	17.572500
529	1	-2.951000	17.037607	19.915500
530	1	-1.475500	16.185726	22.258500
531	1	-2.951000	17.037607	24.601500
532	1	-1.475500	16.185726	26.944500
533	1	-2.951000	17.037607	29.287500
534	1	-1.475500	16.185726	31.630500
535	1	-2.951000	17.037607	33.973500
536	1	-1.475500	16.185726	36.316500
537	1	-2.951000	17.037607	38.659500
538	1	-1.475500	16.185726	41.002500
539	1	-2.951000	17.037607	43.345500
540	1	-1.475500	16.185726	45.688500
541	1	-4.426500	19.593248	1.171500
542	1	-2.951000	18.741367	3.514500
543	1	-4.426500	19.593248	5.857500
544	1	-2.951000	18.741367	8.200500
545	1	-4.426500	19.593248	10.543500
546	1	-2.951000	18.741367	12.886500
547	1	-4.426500	19.593248	15.229500
548	1	-2.951000	18.741367	17.572500
549	1	-4.426500	19.593248	19.915500
550	1	-2.951000	18.741367	22.258500
551	1	-4.426500	19.593248	24.601500
552	1	-2.951000	18.741367	26.944500
553	1	-4.426500	19.593248	29.287500
554	1	-2.951000	18.741367	31.630500
555	1	-4.426500	19.593248	33.973500
556	1	-2.951000	18.741367	36.316500
557	1	-4.426500	19.593248	38.659500
558	1	-2.951000	18.741367	41.002500
559	1	-4.426500	19.593248	43.345500
560	1	-2.951000	18.741367	45.688500
561	1	-5.902000	22.148889	1.171500
562	1	-4.426500	21.297008	3.514500
563	1	-5.902000	22.148889	5.857500
564	1	-4.426500	21.297008	8.200500
565	1	-5.902000	22.148889	10.543500
566	1	-4.426500	21.297008	12.886500
567	1	-5.902000	22.148889	15.229500
568	1	-4.426500	21.297008	17.572500
569	1	-5.902000	22.148889	19.915500
570	1	-4.426500	21.297008	22.258500
571	1	-5.902000	22.148889	24.601500
572	1	-4.426500	21.297008	26.944500
573	1	-5.902000	22.148889	29.287500
574	1	-4.426500	21.297008	31.630500
575	1	-5.902000	22.148889	33.973500
576	1	-4.426500	21.297008	36.316500
577	1	-5.902000	22.148889	38.659500
578	1	-4.426500	21.297008	41.002500
579	1	-5.902000	22.148889	43.345500
580	1	-4.426500	21.297008	45.688500
581	1	-7.377500	24.704530	1.171500
582	1	-5.902000	23.852649	3.514500
583	1	-7.377500	24.704530	5.857500
584	1	-5.902000	23.852649	8.200500
585	1	-7.377500	24.704530	10.543500
586	1	-5.902000	23.852649	12.886500
587	1	-7.377500	24.704530	15.229500
588	1	-5.902000	23.852649	17.572500
589	1	-7.377500	24.704530	19.915500
590	1	-5.902000	23.852649	22.258500
591	1	-7.377500	24.704530	24.601500
592	1	-5.902000	23.852649	26.944500
593	1	-7.377500	24.704530	29.287500
594	1	-5.902000	23.852649	31.630500
595	1	-7.377500	24.704530	33.973500
596	1	-5.902000	23.852649	36.316500
597	1	-7.377500	24.704530	38.659500
598	1	-5.902000	23.852649	41.002500
599	1	-7.377500	24.704530	43.345500
600	1	-5.902000	23.852649	45.688500
601	1	8.853000	1.703761	1.171500
602	1	10.328500	0.851880	3.514500
603	1	8.853000	1.703761	5.857500
604	1	10.328500	0.851880	8.200500
605	1	8.853000	1.703761	10.543500
606	1	10.328500	0.851880	12.886500
607	1	8.853000	1.703761	15.229500
608	1	10.328500	0.851880	17.572500
609	1	8.853000	1.703761	19.915500
610	1	10.328500	0.851880	22.258500
611	1	8.853000	1.703761	24.601500
612	1	10.328500	0.851880	26.944500
613	1	8.853000	1.703761	29.287500
614	1	10.328500	0.851880	31.630500
615	1	8.853000	1.703761	33.973500
616	1	10.328500	0.851880	36.316500
617	1	8.853000	1.703761	38.659500
618	1	10.328500	0.851880	41.002500
619	1	8.853000	1.703761	43.345500
620	1	10.328500	0.851880	45.688500
621	1	7.377500	4.259402	1.171500
622	1	8.853000	3.407521	3.514500
623	1	7.377500	4.259402	5.857500
624	1	8.853000	3.407521	8.200500
625	1	7.377500	4.259402	10.543500
626	1	8.853000	3.407521	12.886500
627	1	7.377500	4.259402	15.229500
628	1	8.853000	3.407521	17.572500
629	1	7.377500	4.259402	19.915500
630	1	8.853000	3.407521	22.258500
631	1	7.377500	4.259402	24.601500
632	1	8.853000	3.407521	26.944500
633	1	7.377500	4.259402	29.287500
634	1	8.853000	3.407521	31.630500
635	1	7.377500	4.259402	33.973500
636	1	8.853000	3.407521	36.316500
637	1	7.377500	4.259402	38.659500
638	1	8.853000	3.407521	41.002500
639	1	7.377500	4.259402	43.345500
640	1	8.853000	3.407521	45.688500
641	1	5.902000	6.815043	1.171500
642	1	7.377500	5.963162	3.514500
643	1	5.902000	6.815043	5.857500
644	1	7.377500	5.963162	8.200500
645	1	5.902000	6.815043	10.543500
646	1	7.377500	5.963162	12.886500
647	1	5.902000	6.815043	15.229500
648	1	7.377500	5.963162	17.572500
649	1	5.902000	6.815043	19.915500
650	1	7.377500	5.963162	22.258500
651	1	5.902000	6.815043	24.601500
652	1	7.377500	5.963162	26.944500
653	1	5.902000	6.815043	29.287500
654	1	7.377500	5.963162	31.630500
655	1	5.902000	6.815043	33.973500
656	1	7.377500	5.963162	36.316500
657	1	5.902000	6.815043	38.659500
658	1	7.377500	5.963162	41.002500
659	1	5.902000	6.815043	43.345500
660	1	7.377500	5.963162	45.688500
661	1	4.426500	9.370684	1.171500
662	1	5.902000	8.518803	3.514500
663	1	4.426500	9.370684	5.857500
664	1	5.902000	8.518803	8.200500
665	1	4.426500	9.370684	10.543500
666	1	5.902000	8.518803	12.886500
667	1	4.426500	9.370684	15.229500
668	1	5.902000	8.518803	17.572500
669	1	4.426500	9.370684	19.915500
670	1	5.902000	8.518803	22.258500
671	1	4.426500	9.370684	24.601500
672	1	5.902000	8.518803	26.944500
673	1	4.426500	9.370684	29.287500
674	1	5.902000	8.518803	31.630500
675	1	4.426500	9.370684	33.973500
676	1	5.902000	8.518803	36.316500
677	1	4.426500	9.370684	38.659500
678	1	5.902000	8.518803	41.002500
679	1	4.426500	9.370684	43.345500
680	1	5.902000	8.518803	45.688500
681	1	2.951000	11.926325	1.171500
682	1	4.426500	11.074444	3.514500
683	1	2.951000	11.926325	5.857500
684	1	4.426500	11.074444	8.200500
685	1	2.951000	11.926325	10.543500
686	1	4.426500	11.074444	12.886500
687	1	2.951000	11.926325	15.229500
688	1	4.426500	11.074444	17.572500
689	1	2.951000	11.926325	19.915500
690	1	4.426500	11.074444	22.258500
691	1	2.951000	11.926325	24.601500
692	1	4.426500	11.074444	26.944500
693	1	2.951000	11.926325	29.287500
694	1	4.426500	11.074444	31.630500
695	1	2.951000	11.926325	33.973500
696	1	4.426500	11.074444	36.316500
697	1	2.951000	11.926325	38.659500
698	1	4.426500	11.074444	41.002500
699	1	2.951000	11.926325	43.345500
700	1	4.426500	11.074444	45.688500
701	1	1.475500	14.481966	1.171500
702	1	2.951000	13.630085	3.514500
703	1	1.475500	14.481966	5.857500
704	1	2.951000	13.630085	8.200500
705	1	1.475500	14.481966	10.543500
706	1	2.951000	13.630085	12.886500
707	1	1.475500	14.481966	15.229500
708	1	2.951000	13.630085	17.572500
709	1	1.475500	14.481966	19.915500
710	1	2.951000	13.630085	22.258500
711	1	1.475500	14.481966	24.601500
712	1	2.951000	13.630085	26.944500
713	1	1.475500	14.481966	29.287500
714	1	2.951000	13.630085	31.630500
715	1	1.475500	14.481966	33.973500
716	1	2.951000	13.630085	36.316500
717	1	1.475500	14.481966	38.659500
718	1	2.951000	13.630085	41.002500
719	1	1.475500	14.481966	43.345500
720	1	2.951000	13.630085	45.688500
721	1	0.000000	17.037607	1.171500
722	1	1.475500	16.185726	3.514500
723	1	0.000000	17.037607	5.857500
724	1	1.475500	16.185726	8.200500
725	1	0.000000	17.037607	10.543500
726	1	1.475500	16.185726	12.886500
727	1	0.000000	17.037607	15.229500
728	1	1.475500	16.185726	17.572500
729	1	0.000000	17.037607	19.915500
730	1	1.475500	16.185726	22.258500
731	1	0.000000	17.037607	24.601500
732	1	1.475500	16.185726	26.944500
733	1	0.000000	17.037607	29.287500
734	1	1.475500	16.185726	31.630500
735	1	0.000000	17.037607	33.973500
736	1	1.475500	16.185726	36.316500
737	1	0.000000	17.037607	38.659500
738	1	1.475500	16.185726	41.002500
739	1	0.000000	17.037607	43.345500
740	1	1.475500	16.185726	45.688500
741	1	-1.475500	19.593248	1.171500
742	1	0.000000	18.741367	3.514500
743	1	-1.475500	19.593248	5.857500
744	1	0.000000	18.741367	8.200500
745	1	-1.475500	19.593248	10.543500
746	1	0.000000	18.741367	12.886500
747	1	-1.475500	19.593248	15.229500
748	1	0.000000	18.741367	17.572500
749	1	-1.475500	19.593248	19.915500
750	1	0.000000	18.741367	22.258500
751	1	-1.475500	19.593248	24.601500
752	1	0.000000	18.741367	26.944500
753	1	-1.475500	19.593248	29.287500
754	1	0.000000	18.741367	31.630500
755	1	-1.475500	19.593248	33.973500
756	1	0.000000	18.741367	36.316500
757	1	-1.475500	19.593248	38.659500
758	1	0.000000	18.741367	41.002500
759	1	-1.475500	19.593248	43.345500
760	1	0.000000	18.741367	45.688500
761	1	-2.951000	22.148889	1.171500
762	1	-1.475500	21.297008	3.514500
763	1	-2.951000	22.148889	5.857500
764	1	-1.475500	21.297008	8.200500
765	1	-2.951000	22.148889	10.543500
766	1	-1.475500	21.297008	12.886500
767	1	-2.951000	22.148889	15.229500
768	1	-1.475500	21.297008	17.572500
769	1	-2.951000	22.148889	19.915500
770	1	-1.475500	21.297008	22.258500
771	1	-2.951000	22.148889	24.601500
772	1	-1.475500	21.297008	26.944500
773	1	-2.951000	22.148889	29.287500
774	1	-1.475500	21.297008	31.630500
775	1	-2.951000	22.148889	33.973500
776	1	-1.475500	21.297008	36.316500
777	1	-2.951000	22.148889	38.659500
778	1	-1.475500	21.297008	41.002500
779	1	-2.951000	22.148889	43.345500
780	1	-1.475500	21.297008	45.688500
781	1	-4.426500	24.704530	1.171500
782	1	-2.951000	23.852649	3.514500
783	1	-4.426500	24.704530	5.857500
784	1	-2.951000	23.852649	8.200500
785	1	-4.426500	24.704530	10.543500
786	1	-2.951000	23.852649	12.886500
787	1	-4.426500	24.704530	15.229500
788	1	-2.951000	23.852649	17.572500
789	1	-4.426500	24.704530	19.915500
790	1	-2.951000	23.852649	22.258500
791	1	-4.426500	24.704530	24.601500
792	1	-2.951000	23.852649	26.944500
793	1	-4.426500	24.704530	29.287500
794	1	-2.951000	23.852649	31.630500
795	1	-4.426500	24.704530	33.973500
796	1	-2.951000	23.852649	36.316500
797	1	-4.426500	24.704530	38.659500
798	1	-2.951000	23.852649	41.002500
799	1	-4.426500	24.704530	43.345500
800	1	-2.951000	23.852649	45.688500
801	1	11.804000	1.703761	1.171500
802	1	13.279500	0.851880	3.514500
803	1	11.804000	1.703761	5.857500
804	1	13.279500	0.851880	8.200500
805	1	11.804000	1.703761	10.543500
806	1	13.279500	0.851880	12.886500
807	1	11.804000	1.703761	15.229500
808	1	13.279500	0.851880	17.572500
809	1	11.804000	1.703761	19.915500
810	1	13.279500	0.851880	22.258500
811	1	11.804000	1.703761	24.601500
812	1	13.279500	0.851880	26.944500
813	1	11.804000	1.703761	29.287500
814	1	13.279500	0.851880	31.630500
815	1	11.804000	1.703761	33.973500
816	1	13.279500	0.851880	36.316500
817	1	11.804000	1.703761	38.659500
818	1	13.279500	0.851880	41.002500
819	1	11.804000	1.703761	43.345500
820	1	13.279500	0.851880	45.688500
821	1	10.328500	4.259402	1.171500
822	1	11.804000	3.407521	3.514500
823	1	10.328500	4.259402	5.857500
824	1	11.804000	3.407521	8.200500
825	1	10.328500	4.259402	10.543500
826	1	11.804000	3.407521	12.886500
827	1	10.328500	4.259402	15.229500
828	1	11.804000	3.407521	17.572500
829	1	10.328500	4.259402	19.915500
830	1	11.804000	3.407521	22.258500
831	1	10.328500	4.259402	24.601500
832	1	11.804000	3.407521	26.944500
833	1	10.328500	4.259402	29.287500
834	1	11.804000	3.407521	31.630500
835	1	10.328500	4.259402	33.973500
836	1	11.804000	3.407521	36.316500
837	1	10.328500	4.259402	38.659500
838	1	11.804000	3.407521	41.002500
839	1	10.328500	4.259402	43.345500
840	1	11.804000	3.407521	45.688500
841	1	8.853000	6.815043	1.171500
842	1	10.328500	5.963162	3.514500
843	1	8.853000	6.815043	5.857500
844	1	10.328500	5.963162	8.200500
845	1	8.853000	6.815043	10.543500
846	1	10.328500	5.963162	12.886500
847	1	8.853000	6.815043	15.229500
848	1	10.328500	5.963162	17.572500
849	1	8.853000	6.815043	19.915500
850	1	10.328500	5.963162	22.258500
851	1	8.853000	6.815043	24.601500
852	1	10.328500	5.963162	26.944500
853	1	8.853000	6.815043	29.287500
854	1	10.328500	5.963162	31.630500