Position data Generated by SPaMD
250	atoms
1	atom types
0.000000		16.160000	xlo xhi
0.000000		13.994970	ylo yhi
0.000000		25.910000	zlo zhi
-8.080000		0.000000	0.000000	xy xz yz

Atoms

1	1	0.000000	1.865996	1.295500
2	1	1.616000	0.932998	3.886500
3	1	0.000000	1.865996	6.477500
4	1	1.616000	0.932998	9.068500
5	1	0.000000	1.865996	11.659500
6	1	1.616000	0.932998	14.250500
7	1	0.000000	1.865996	16.841500
8	1	1.616000	0.932998	19.432500
9	1	0.000000	1.865996	22.023500
10	1	1.616000	0.932998	24.614500
11	1	-1.616000	4.664990	1.295500
12	1	0.000000	3.731992	3.886500
13	1	-1.616000	4.664990	6.477500
14	1	0.000000	3.731992	9.068500
15	1	-1.616000	4.664990	11.659500
16	1	0.000000	3.731992	14.250500
17	1	-1.616000	4.664990	16.841500
18	1	0.000000	3.731992	19.432500
19	1	-1.616000	4.664990	22.023500
20	1	0.000000	3.731992	24.614500
21	1	-3.232000	7.463984	1.295500
22	1	-1.616000	6.530986	3.886500
23	1	-3.232000	7.463984	6.477500
24	1	-1.616000	6.530986	9.068500
25	1	-3.232000	7.463984	11.659500
26	1	-1.616000	6.530986	14.250500
27	1	-3.232000	7.463984	16.841500
28	1	-1.616000	6.530986	19.432500
29	1	-3.232000	7.463984	22.023500
30	1	-1.616000	6.530986	24.614500
31	1	-4.848000	10.262978	1.295500
32	1	-3.232000	9.329980	3.886500
33	1	-4.848000	10.262978	6.477500
34	1	-3.232000	9.329980	9.068500
35	1	-4.848000	10.262978	11.659500
36	1	-3.232000	9.329980	14.250500
37	1	-4.848000	10.262978	16.841500
38	1	-3.232000	9.329980	19.432500
39	1	-4.848000	10.262978	22.023500
40	1	-3.232000	9.329980	24.614500
41	1	-6.464000	13.061972	1.295500
42	1	-4.848000	12.128974	3.886500
43	1	-6.464000	13.061972	6.477500
44	1	-4.848000	12.128974	9.068500
45	1	-6.464000	13.061972	11.659500
46	1	-4.848000	12.128974	14.250500
47	1	-6.464000	13.061972	16.841500
48	1	-4.848000	12.128974	19.432500
49	1	-6.464000	13.061972	22.023500
50	1	-4.848000	12.128974	24.614500
51	1	3.232000	1.865996	1.295500
52	1	4.848000	0.932998	3.886500
53	1	3.232000	1.865996	6.477500
54	1	4.848000	0.932998	9.068500
55	1	3.232000	1.865996	11.659500
56	1	4.848000	0.932998	14.250500
57	1	3.232000	1.865996	16.841500
58	1	4.848000	0.932998	19.432500
59	1	3.232000	1.865996	22.023500
60	1	4.848000	0.932998	24.614500
61	1	1.616000	4.664990	1.295500
62	1	3.232000	3.731992	3.886500
63	1	1.616000	4.664990	6.477500
64	1	3.232000	3.731992	9.068500
65	1	1.616000	4.664990	11.659500
66	1	3.232000	3.731992	14.250500
67	1	1.616000	4.664990	16.841500
68	1	3.232000	3.731992	19.432500
69	1	1.616000	4.664990	22.023500
70	1	3.232000	3.731992	24.614500
71	1	0.000000	7.463984	1.295500
72	1	1.616000	6.530986	3.886500
73	1	0.000000	7.463984	6.477500
74	1	1.616000	6.530986	9.068500
75	1	0.000000	7.463984	11.659500
76	1	1.616000	6.530986	14.250500
77	1	0.000000	7.463984	16.841500
78	1	1.616000	6.530986	19.432500
79	1	0.000000	7.463984	22.023500
80	1	1.616000	6.530986	24.614500
81	1	-1.616000	10.262978	1.295500
82	1	0.000000	9.329980	3.886500
83	1	-1.616000	10.262978	6.477500
84	1	0.000000	9.329980	9.068500
85	1	-1.616000	10.262978	11.659500
86	1	0.000000	9.329980	14.250500
87	1	-1.616000	10.262978	16.841500
88	1	0.000000	9.329980	19.432500
89	1	-1.616000	10.262978	22.023500
90	1	0.000000	9.329980	24.614500
91	1	-3.232000	13.061972	1.295500
92	1	-1.616000	12.128974	3.886500
93	1	-3.232000	13.061972	6.477500
94	1	-1.616000	12.128974	9.068500
95	1	-3.232000	13.061972	11.659500
96	1	-1.616000	12.128974	14.250500
97	1	-3.232000	13.061972	16.841500
98	1	-1.616000	12.128974	19.432500
99	1	-3.232000	13.061972	22.023500
100	1	-1.616000	12.128974	24.614500
101	1	6.464000	1.865996	1.295500
102	1	8.080000	0.932998	3.886500
103	1	6.464000	1.865996	6.477500
104	1	8.080000	0.932998	9.068500
105	1	6.464000	1.865996	11.659500
106	1	8.080000	0.932998	14.250500
107	1	6.464000	1.865996	16.841500
108	1	8.080000	0.932998	19.432500
109	1	6.464000	1.865996	22.023500
110	1	8.080000	0.932998	24.614500
111	1	4.848000	4.664990	1.295500
112	1	6.464000	3.731992	3.886500
113	1	4.848000	4.664990	6.477500
114	1	6.464000	3.731992	9.068500
115	1	4.848000	4.664990	11.659500
116	1	6.464000	3.731992	14.250500
117	1	4.848000	4.664990	16.841500
118	1	6.464000	3.731992	19.432500
119	1	4.848000	4.664990	22.023500
120	1	6.464000	3.731992	24.614500
121	1	3.232000	7.463984	1.295500
122	1	4.848000	6.530986	3.886500
123	1	3.232000	7.463984	6.477500
124	1	4.848000	6.530986	9.068500
125	1	3.232000	7.463984	11.659500
126	1	4.848000	6.530986	14.250500
127	1	3.232000	7.463984	16.841500
128	1	4.848000	6.530986	19.432500
129	1	3.232000	7.463984	22.023500
130	1	4.848000	6.530986	24.614500
131	1	1.616000	10.262978	1.295500
132	1	3.232000	9.329980	3.886500
133	1	1.616000	10.262978	6.477500
134	1	3.232000	9.329980	9.068500
135	1	1.616000	10.262978	11.659500
136	1	3.232000	9.329980	14.250500
137	1	1.616000	10.262978	16.841500
138	1	3.232000	9.329980	19.432500
139	1	1.616000	10.262978	22.023500
140	1	3.232000	9.329980	24.614500
141	1	0.000000	13.061972	1.295500
142	1	1.616000	12.128974	3.886500
143	1	0.000000	13.061972	6.477500
144	1	1.616000	12.128974	9.068500
145	1	0.000000	13.061972	11.659500
146	1	1.616000	12.128974	14.250500
147	1	0.000000	13.061972	16.841500
148	1	1.616000	12.128974	19.432500
149	1	0.000000	13.061972	22.023500
150	1	1.616000	12.128974	24.614500
151	1	9.696000	1.865996	1.295500
152	1	11.312000	0.932998	3.886500
153	1	9.696000	1.865996	6.477500
154	1	11.312000	0.932998	9.068500
155	1	9.696000	1.865996	11.659500
156	1	11.312000	0.932998	14.250500
157	1	9.696000	1.865996	16.841500
158	1	11.312000	0.932998	19.432500
159	1	9.696000	1.865996	22.023500
160	1	11.312000	0.932998	24.614500
161	1	8.080000	4.664990	1.295500
162	1	9.696000	3.731992	3.886500
163	1	8.080000	4.664990	6.477500
164	1	9.696000	3.731992	9.068500
165	1	8.080000	4.664990	11.659500
166	1	9.696000	3.731992	14.250500
167	1	8.080000	4.664990	16.841500
168	1	9.696000	3.731992	19.432500
169	1	8.080000	4.664990	22.023500
170	1	9.696000	3.731992	24.614500
171	1	6.464000	7.463984	1.295500
172	1	8.080000	6.530986	3.886500
173	1	6.464000	7.463984	6.477500
174	1	8.080000	6.530986	9.068500
175	1	6.464000	7.463984	11.659500
176	1	8.080000	6.530986	14.250500
177	1	6.464000	7.463984	16.841500
178	1	8.080000	6.530986	19.432500
179	1	6.464000	7.463984	22.023500
180	1	8.080000	6.530986	24.614500
181	1	4.848000	10.262978	1.295500
182	1	6.464000	9.329980	3.886500
183	1	4.848000	10.262978	6.477500
184	1	6.464000	9.329980	9.068500
185	1	4.848000	10.262978	11.659500
186	1	6.464000	9.329980	14.250500
187	1	4.848000	10.262978	16.841500
188	1	6.464000	9.329980	19.432500
189	1	4.848000	10.262978	22.023500
190	1	6.464000	9.329980	24.614500
191	1	3.232000	13.061972	1.295500
192	1	4.848000	12.128974	3.886500
193	1	3.232000	13.061972	6.477500
194	1	4.848000	12.128974	9.068500
195	1	3.232000	13.061972	11.659500
196	1	4.848000	12.128974	14.250500
197	1	3.232000	13.061972	16.841500
198	1	4.848000	12.128974	19.432500
199	1	3.232000	13.061972	22.023500
200	1	4.848000	12.128974	24.614500
201	1	12.928000	1.865996	1.295500
202	1	14.544000	0.932998	3.886500
203	1	12.928000	1.865996	6.477500
204	1	14.544000	0.932998	9.068500
205	1	12.928000	1.865996	11.659500
206	1	14.544000	0.932998	14.250500
207	1	12.928000	1.865996	16.841500
208	1	14.544000	0.932998	19.432500
209	1	12.928000	1.865996	22.023500
210	1	14.544000	0.932998	24.614500
211	1	11.312000	4.664990	1.295500
212	1	12.928000	3.731992	3.886500
213	1	11.312000	4.664990	6.477500
214	1	12.928000	3.731992	9.068500
215	1	11.312000	4.664990	11.659500
216	1	12.928000	3.731992	14.250500
217	1	11.312000	4.664990	16.841500
218	1	12.928000	3.731992	19.432500
219	1	11.312000	4.664990	22.023500
220	1	12.928000	3.731992	24.614500
221	1	9.696000	7.463984	1.295500
222	1	11.312000	6.530986	3.886500
223	1	9.696000	7.463984	6.477500
224	1	11.312000	6.530986	9.068500
225	1	9.696000	7.463984	11.659500
226	1	11.312000	6.530986	14.250500
227	1	9.696000	7.463984	16.841500
228	1	11.312000	6.530986	19.432500
229	1	9.696000	7.463984	22.023500
230	1	11.312000	6.530986	24.614500
231	1	8.080000	10.262978	1.295500
232	1	9.696000	9.329980	3.886500
233	1	8.080000	10.262978	6.477500
234	1	9.696000	9.329980	9.068500
235	1	8.080000	10.262978	11.659500
236	1	9.696000	9.329980	14.250500
237	1	8.080000	10.262978	16.841500
238	1	9.696000	9.329980	19.432500
239	1	8.080000	10.262978	22.023500
240	1	9.696000	9.329980	24.614500
241	1	6.464000	13.061972	1.295500
242	1	8.080000	12.128974	3.886500
243	1	6.464000	13.061972	6.477500
244	1	8.080000	12.128974	9.068500
245	1	6.464000	13.061972	11.659500
246	1	8.080000	12.128974	14.250500
247	1	6.464000	13.061972	16.841500
248	1	8.080000	12.128974	19.432500
249	1	6.464000	13.061972	22.023500
250	1	8.080000	12.128974	24.614500
